<?xml version="1.0"?>
<VTKFile type="UnstructuredGrid" version="0.1" byte_order="LittleEndian">
  <UnstructuredGrid>
    <Piece NumberOfPoints="50" NumberOfCells="65">
      <Points>
        <DataArray type="Float32" NumberOfComponents="3" format="ascii">
          0 5 0 0 -5 0 15 0.2 0 15 -0.2 0 35 0.2 0 35 -0.2 0 2.14286 4.31429 0 4.28571 3.62857 0 6.42857 2.94286 0 8.57143 2.25714 0 10.7143 1.57143 0 12.8571 0.885714 0 17.8571 0.2 0 20.7143 0.2 0 23.5714 0.2 0 26.4286 0.2 0 29.2857 0.2 0 32.1429 0.2 0 32.1429 -0.2 0 29.2857 -0.2 0 26.4286 -0.2 0 23.5714 -0.2 0 20.7143 -0.2 0 17.8571 -0.2 0 12.8571 -0.885714 0 10.7143 -1.57143 0 8.57143 -2.25714 0 6.42857 -2.94286 0 4.28571 -3.62857 0 2.14286 -4.31429 0 0 -2.5 0 0 -6.16307e-12 0 0 2.5 0 3.95974 -5.7158e-13 0 13.9286 -3.66374e-15 0 6.61813 2.81487e-12 0 2.86365 2.0434 0 2.86365 -2.0434 0 9.43036 1.987e-12 0 11.3926 2.79508e-14 0 4.83116 1.72297 0 4.83116 -1.72297 0 1.90629 -3.21031e-12 0 33.5714 0 0 16.4286 -1.80625e-18 0 25 6.93889e-18 0 19.2857 -6.93889e-18 0 30.7143 0 0 22.1429 0 0 27.8571 0 0 
        </DataArray>
      </Points>
      <Cells>
        <DataArray type="Int32" Name="connectivity" format="ascii">
          8 9 35 26 27 35 8 35 40 27 41 35 30 42 37 32 36 42 33 40 35 33 35 41 29 30 37 6 36 32 30 31 42 31 32 42 0 6 32 30 29 1 26 35 38 9 38 35 6 7 36 28 29 37 7 40 36 33 41 37 33 36 40 28 37 41 9 10 38 25 26 38 33 42 36 33 37 42 11 34 24 24 25 39 10 11 39 25 38 39 10 39 38 11 24 39 27 28 41 7 8 40 2 34 11 3 24 34 2 3 34 2 44 12 3 23 44 4 17 43 5 43 18 12 46 13 13 48 14 14 45 15 15 49 16 16 47 17 18 47 19 19 49 20 20 45 21 21 48 22 22 46 23 2 3 44 4 43 5 12 44 23 12 23 46 13 46 22 13 22 48 14 21 45 14 48 21 15 45 20 15 20 49 16 19 47 16 49 19 17 18 43 17 47 18 
        </DataArray>
        <DataArray type="Int32" Name="offsets" format="ascii">
          3 6 9 12 15 18 21 24 27 30 33 36 39 42 45 48 51 54 57 60 63 66 69 72 75 78 81 84 87 90 93 96 99 102 105 108 111 114 117 120 123 126 129 132 135 138 141 144 147 150 153 156 159 162 165 168 171 174 177 180 183 186 189 192 195 
        </DataArray>
        <DataArray type="UInt8" Name="types" format="ascii">
          5 5 5 5 5 5 5 5 5 5 5 5 5 5 5 5 5 5 5 5 5 5 5 5 5 5 5 5 5 5 5 5 5 5 5 5 5 5 5 5 5 5 5 5 5 5 5 5 5 5 5 5 5 5 5 5 5 5 5 5 5 5 5 5 5 
        </DataArray>
      </Cells>
      <CellData>
        <DataArray type="Float32" Name="F0_Alpha_SG_co2liq_mod.xml" format="ascii">
1.7244e-10 1.7249e-10 1.71479e-10 1.71832e-10 1.65218e-10 1.65141e-10 1.68654e-10 1.6846e-10 1.6411e-10 1.6395e-10 1.67752e-10 1.67752e-10 1.62466e-10 1.62765e-10 1.72681e-10 1.72651e-10 1.63406e-10 1.63046e-10 1.64177e-10 1.64997e-10 1.65255e-10 1.63777e-10 1.72682e-10 1.72682e-10 1.65128e-10 1.65168e-10 1.72682e-10 1.72682e-10 1.72682e-10 1.72682e-10 1.72683e-10 1.72682e-10 1.68182e-10 1.68379e-10 1.72682e-10 1.72682e-10 1.72682e-10 1.72682e-10 1.72682e-10 1.7329e-10 1.7329e-10 1.72682e-10 1.72682e-10 1.72684e-10 1.72706e-10 1.72864e-10 1.72864e-10 1.72706e-10 1.72684e-10 1.72682e-10 1.72682e-10 1.72682e-10 1.7333e-10 1.72682e-10 1.72682e-10 1.72682e-10 1.72682e-10 1.72683e-10 1.72682e-10 1.72685e-10 1.72697e-10 1.72818e-10 1.72716e-10 1.73207e-10 1.72912e-10 
        </DataArray>
        <DataArray type="Float32" Name="F0_Density_SG_co2liq_mod.xml" format="ascii">
5912.17 5909.13 5968.12 5947.21 6482.73 6487.55 6133 6144.12 6556.97 6565.64 6346.14 6346.11 6694.43 6674.38 5897.19 5899.12 6526.94 6550.95 6412.21 6392.66 6377.69 6434.42 5897.11 5897.13 6432.98 6430.43 5897.13 5897.13 5897.12 5897.12 5897.06 5897.13 6149.71 6137.52 5897.13 5897.13 5897.13 5897.13 5897.13 5855.71 5855.71 5897.13 5897.13 5897.03 5895.6 5885.33 5885.35 5895.6 5897.03 5897.13 5897.13 5897.13 5848.9 5897.13 5897.13 5897.13 5897.13 5897.07 5897.12 5896.96 5896.15 5888.4 5894.93 5861.82 5882.16 
        </DataArray>
        <DataArray type="Float32" Name="F0_Temperature_SG_co2liq_mod.xml" format="ascii">
41.8253 41.8167 41.9571 41.9129 42.4144 42.4162 42.1907 42.2019 42.4407 42.4435 42.351 42.351 42.4784 42.4737 41.7809 41.7869 42.4307 42.4388 42.3844 42.3751 42.3677 42.3944 41.7806 41.7807 42.3938 42.3927 41.7807 41.7807 41.7806 41.7807 41.7805 41.7807 42.2073 42.1953 41.7807 41.7807 41.7807 41.7807 41.7807 41.6216 41.6216 41.7807 41.7807 41.7804 41.7758 41.7417 41.7417 41.7758 41.7804 41.7807 41.7807 41.7807 41.5875 41.7807 41.7807 41.7807 41.7807 41.7805 41.7807 41.7801 41.7776 41.7522 41.7737 41.6497 41.7305 
        </DataArray>
        <DataArray type="Float32" Name="F0_Mass fraction_SG_co2liq_mod.xml" format="ascii">
9.0173e-09 9.12561e-09 7.49785e-09 8.01002e-09 2.49019e-09 2.47924e-09 5.07777e-09 4.97608e-09 2.32168e-09 2.30886e-09 2.7655e-09 2.76558e-09 2.01677e-09 2.04759e-09 9.59176e-09 9.51194e-09 2.61914e-09 2.55698e-09 3.27716e-09 3.17768e-09 3.22866e-09 3.20726e-09 9.59508e-09 9.59455e-09 2.81728e-09 2.8249e-09 9.5944e-09 9.5944e-09 9.59472e-09 9.59462e-09 9.59724e-09 9.59442e-09 5.07576e-09 5.20502e-09 9.5944e-09 9.5944e-09 9.5944e-09 9.5944e-09 9.5944e-09 1.1934e-08 1.19338e-08 9.5944e-09 9.59456e-09 9.59864e-09 9.65917e-09 1.01281e-08 1.01272e-08 9.65928e-09 9.59868e-09 9.59456e-09 9.5944e-09 9.5944e-09 1.27426e-08 9.5944e-09 9.5944e-09 9.59441e-09 9.59448e-09 9.59675e-09 9.59471e-09 9.60154e-09 9.63596e-09 9.98156e-09 9.68807e-09 1.1486e-08 1.02886e-08 
        </DataArray>
        <DataArray type="Float32" Name="F1_Alpha_SG_co2gas_mod.xml" format="ascii">
1 1 1 1 1 1 1 1 1 1 1 1 1 1 1 1 1 1 1 1 1 1 1 1 1 1 1 1 1 1 1 1 1 1 1 1 1 1 1 1 1 1 1 1 1 1 1 1 1 1 1 1 1 1 1 1 1 1 1 1 1 1 1 1 1 
        </DataArray>
        <DataArray type="Float32" Name="F1_Density_SG_co2gas_mod.xml" format="ascii">
113.06 111.693 136.493 127.581 430.112 432.133 203.703 208.003 463.484 466.22 384.948 384.937 539.286 530.554 106.167 107.075 407.209 417.722 321.236 331.93 326.434 328.571 106.13 106.136 377.053 375.978 106.138 106.138 106.134 106.135 106.106 106.138 203.767 198.545 106.138 106.138 106.138 106.138 106.138 85.0288 85.0301 106.138 106.136 106.09 105.413 100.45 100.459 105.412 106.09 106.136 106.138 106.138 79.5591 106.138 106.138 106.138 106.137 106.111 106.134 106.057 105.672 101.95 105.093 88.3953 98.8562 
        </DataArray>
        <DataArray type="Float32" Name="F1_Temperature_SG_co2gas_mod.xml" format="ascii">
468.467 468 476.935 475.577 372.931 373.129 478.677 478.815 373.894 374.912 354.218 354.217 365.139 364.689 466.393 466.636 412.788 412.359 460.866 435.636 434.864 462.459 466.383 466.385 402.325 402.283 466.385 466.385 466.384 466.385 466.377 466.385 493.902 495.386 466.385 466.385 466.385 466.385 466.385 460.643 460.644 466.385 466.385 466.373 466.194 464.874 464.873 466.194 466.373 466.385 466.385 466.385 468.78 466.385 466.385 466.385 466.385 466.378 466.384 466.364 466.262 465.27 466.114 461.504 464.58 
        </DataArray>
        <DataArray type="Float32" Name="F1_Mass fraction_SG_co2gas_mod.xml" format="ascii">
1 1 1 1 1 1 1 1 1 1 1 1 1 1 1 1 1 1 1 1 1 1 1 1 1 1 1 1 1 1 1 1 1 1 1 1 1 1 1 1 1 1 1 1 1 1 1 1 1 1 1 1 1 1 1 1 1 1 1 1 1 1 1 1 1 
        </DataArray>
        <DataArray type="Float32" Name="Density_Mixture" format="ascii">
113.06 111.693 136.493 127.581 430.112 432.133 203.703 208.003 463.484 466.22 384.948 384.937 539.286 530.554 106.167 107.075 407.209 417.722 321.236 331.93 326.434 328.571 106.13 106.136 377.053 375.978 106.138 106.138 106.134 106.135 106.106 106.138 203.767 198.545 106.138 106.138 106.138 106.138 106.138 85.0288 85.0301 106.138 106.136 106.09 105.413 100.45 100.459 105.412 106.09 106.136 106.138 106.138 79.5591 106.138 106.138 106.138 106.137 106.111 106.134 106.057 105.672 101.95 105.093 88.3953 98.8562 
        </DataArray>
        <DataArray type="Float32" Name="Pressure_Mixture" format="ascii">
6.77272e+06 6.67257e+06 8.52722e+06 7.88751e+06 2.23081e+07 2.24295e+07 1.32136e+07 1.35154e+07 2.41723e+07 2.43888e+07 1.8831e+07 1.88304e+07 2.75879e+07 2.70922e+07 6.27398e+06 6.33892e+06 2.342e+07 2.40216e+07 2.05215e+07 2.00232e+07 1.96406e+07 2.1086e+07 6.27131e+06 6.27174e+06 2.10495e+07 2.09847e+07 6.27186e+06 6.27186e+06 6.2716e+06 6.27168e+06 6.26957e+06 6.27185e+06 1.36667e+07 1.33363e+07 6.27186e+06 6.27186e+06 6.27186e+06 6.27186e+06 6.27186e+06 4.77768e+06 4.77777e+06 6.27185e+06 6.27173e+06 6.26844e+06 6.22009e+06 5.8663e+06 5.86693e+06 6.22e+06 6.26842e+06 6.27173e+06 6.27185e+06 6.27186e+06 4.50696e+06 6.27186e+06 6.27186e+06 6.27185e+06 6.2718e+06 6.26997e+06 6.27161e+06 6.26612e+06 6.23855e+06 5.97298e+06 6.1973e+06 5.01292e+06 5.75499e+06 
        </DataArray>
        <DataArray type="Float32" Name="Velocity_Mixture" NumberOfComponents="3" format="ascii">
18.9792 -0.685775 0 10.8429 2.60974 0 66.7602 -5.79252 0 50.4605 -9.14952 0 321.724 13.6041 0 322.258 -16.4609 0 189.155 -7.63748 0 194.603 9.06989 0 309.444 44.6211 0 309.214 -44.4971 0 343.446 0.0949583 0 343.449 -0.0926781 0 289.763 -42.8897 0 291.3 45.5702 0 0.0029092 -0.462246 0 2.14114 -1.12719 0 286.969 -61.1635 0 289.401 76.2165 0 268.178 -50.1282 0 270.08 20.637 0 273.346 -12.2376 0 260.359 74.754 0 -0.179343 -0.152004 0 0.00394351 -0.00665002 0 292.75 -16.3941 0 292.749 17.9645 0 0 0 0 -5.49079e-05 5.46988e-05 0 -0.00842513 -0.00237107 0 -0.000278495 0.0102695 0 -0.0648297 0.0533986 0 -0.000269174 0.000408123 0 155.307 52.1325 0 178.97 -25.32 0 0 0 0 0 0 0 0 0 0 0 0 0 0 0 0 22.752 -0.829511 0 22.7547 0.834093 0 0 -1.73512e-05 0 0.000808429 -0.000678443 0 0.0241199 -0.0137746 0 0.406859 -0.141391 0 3.88057 -0.623373 0 3.91287 0.611702 0 0.424928 0.135673 0 0.0257385 0.0133186 0 0.000887597 0.000666107 0 0 1.91662e-05 0 0 0 0 63.8988 0.00553902 0 0 0 0 0 0 0 0.000351685 0 0 0.000638607 8.21698e-05 0 0.0234372 0.00242006 0 0.0151238 -0.000437708 0 0.360548 -0.00912357 0 0.492327 0.0344921 0 5.83276 0.148063 0 4.68242 -0.0965545 0 37.9876 -0.00399589 0 29.8677 -0.154306 0 
        </DataArray>
        <DataArray type="Float32" Name="gradRho" format="ascii">
7.72617 5.48099 25.8747 27.032 21.2971 21.7777 61.0556 64.2931 37.6097 43.0883 31.368 32.7774 17.2503 15.8344 1.38178 2.07694 37.1543 33.7097 74.0395 56.1832 57.8078 75.89 0.325279 0.010815 35.1293 32.6369 7.49712e-05 0.000913785 0.0110982 0.0143737 0.00956662 0.00152175 54.301 51.3566 1.92207e-06 2.15811e-06 3.0088e-07 1.59622e-07 1.32703e-07 0.836041 0.836459 1.00318e-05 0.000273246 0.00484462 0.0446097 0.224299 0.224878 0.0443937 0.00473147 0.000261304 8.20992e-06 5.72969e-08 0.788687 4.57004e-06 7.06765e-06 0.000268266 0.000354613 0.0101027 0.0081935 0.138085 0.159875 1.24397 1.13092 3.98483 3.81493 
        </DataArray>
      </CellData>
    </Piece>
  </UnstructuredGrid>
</VTKFile>
