<?xml version="1.0"?>
<VTKFile type="UnstructuredGrid" version="0.1" byte_order="LittleEndian">
  <UnstructuredGrid>
    <Piece NumberOfPoints="50" NumberOfCells="65">
      <Points>
        <DataArray type="Float32" NumberOfComponents="3" format="ascii">
          0 5 0 0 -5 0 15 0.2 0 15 -0.2 0 35 0.2 0 35 -0.2 0 2.14286 4.31429 0 4.28571 3.62857 0 6.42857 2.94286 0 8.57143 2.25714 0 10.7143 1.57143 0 12.8571 0.885714 0 17.8571 0.2 0 20.7143 0.2 0 23.5714 0.2 0 26.4286 0.2 0 29.2857 0.2 0 32.1429 0.2 0 32.1429 -0.2 0 29.2857 -0.2 0 26.4286 -0.2 0 23.5714 -0.2 0 20.7143 -0.2 0 17.8571 -0.2 0 12.8571 -0.885714 0 10.7143 -1.57143 0 8.57143 -2.25714 0 6.42857 -2.94286 0 4.28571 -3.62857 0 2.14286 -4.31429 0 0 -2.5 0 0 -6.16307e-12 0 0 2.5 0 3.95974 -5.7158e-13 0 13.9286 -3.66374e-15 0 6.61813 2.81487e-12 0 2.86365 2.0434 0 2.86365 -2.0434 0 9.43036 1.987e-12 0 11.3926 2.79508e-14 0 4.83116 1.72297 0 4.83116 -1.72297 0 1.90629 -3.21031e-12 0 33.5714 0 0 16.4286 -1.80625e-18 0 25 6.93889e-18 0 19.2857 -6.93889e-18 0 30.7143 0 0 22.1429 0 0 27.8571 0 0 
        </DataArray>
      </Points>
      <Cells>
        <DataArray type="Int32" Name="connectivity" format="ascii">
          8 9 35 26 27 35 8 35 40 27 41 35 30 42 37 32 36 42 33 40 35 33 35 41 29 30 37 6 36 32 30 31 42 31 32 42 0 6 32 30 29 1 26 35 38 9 38 35 6 7 36 28 29 37 7 40 36 33 41 37 33 36 40 28 37 41 9 10 38 25 26 38 33 42 36 33 37 42 11 34 24 24 25 39 10 11 39 25 38 39 10 39 38 11 24 39 27 28 41 7 8 40 2 34 11 3 24 34 2 3 34 2 44 12 3 23 44 4 17 43 5 43 18 12 46 13 13 48 14 14 45 15 15 49 16 16 47 17 18 47 19 19 49 20 20 45 21 21 48 22 22 46 23 2 3 44 4 43 5 12 44 23 12 23 46 13 46 22 13 22 48 14 21 45 14 48 21 15 45 20 15 20 49 16 19 47 16 49 19 17 18 43 17 47 18 
        </DataArray>
        <DataArray type="Int32" Name="offsets" format="ascii">
          3 6 9 12 15 18 21 24 27 30 33 36 39 42 45 48 51 54 57 60 63 66 69 72 75 78 81 84 87 90 93 96 99 102 105 108 111 114 117 120 123 126 129 132 135 138 141 144 147 150 153 156 159 162 165 168 171 174 177 180 183 186 189 192 195 
        </DataArray>
        <DataArray type="UInt8" Name="types" format="ascii">
          5 5 5 5 5 5 5 5 5 5 5 5 5 5 5 5 5 5 5 5 5 5 5 5 5 5 5 5 5 5 5 5 5 5 5 5 5 5 5 5 5 5 5 5 5 5 5 5 5 5 5 5 5 5 5 5 5 5 5 5 5 5 5 5 5 
        </DataArray>
      </Cells>
      <CellData>
        <DataArray type="Float32" Name="F0_Alpha_SG_co2liq_mod.xml" format="ascii">
1.72682e-10 1.72682e-10 1.72683e-10 1.72683e-10 1.668e-10 1.66872e-10 1.72667e-10 1.72666e-10 1.67516e-10 1.67314e-10 1.67856e-10 1.67856e-10 1.65775e-10 1.65974e-10 1.72682e-10 1.72682e-10 1.70961e-10 1.70192e-10 1.72366e-10 1.72134e-10 1.72094e-10 1.72648e-10 1.72682e-10 1.72682e-10 1.70609e-10 1.70598e-10 1.72682e-10 1.72682e-10 1.72682e-10 1.72682e-10 1.72682e-10 1.72682e-10 1.72693e-10 1.7268e-10 1.72682e-10 1.72682e-10 1.72682e-10 1.72682e-10 1.72682e-10 1.73035e-10 1.73035e-10 1.72682e-10 1.72682e-10 1.72682e-10 1.72683e-10 1.72709e-10 1.72709e-10 1.72683e-10 1.72682e-10 1.72682e-10 1.72682e-10 1.72682e-10 1.73113e-10 1.72682e-10 1.72682e-10 1.72682e-10 1.72682e-10 1.72682e-10 1.72682e-10 1.72682e-10 1.72682e-10 1.72696e-10 1.72683e-10 1.7294e-10 1.72728e-10 
        </DataArray>
        <DataArray type="Float32" Name="F0_Density_SG_co2liq_mod.xml" format="ascii">
5897.13 5897.13 5897.08 5897.08 6311.53 6307.4 5898.06 5898.13 6255.19 6265.19 6312.71 6312.74 6438.47 6425.55 5897.13 5897.13 6001.79 6046.84 5916.77 5930.62 5933 5899.2 5897.13 5897.13 6018.61 6019.27 5897.13 5897.13 5897.13 5897.13 5897.13 5897.13 5896.4 5897.25 5897.13 5897.13 5897.13 5897.13 5897.13 5873.88 5873.88 5897.13 5897.13 5897.13 5897.09 5895.4 5895.39 5897.09 5897.13 5897.13 5897.13 5897.13 5865.55 5897.13 5897.13 5897.13 5897.13 5897.13 5897.13 5897.13 5897.11 5896.22 5897.03 5880.34 5894.15 
        </DataArray>
        <DataArray type="Float32" Name="F0_Temperature_SG_co2liq_mod.xml" format="ascii">
41.7807 41.7807 41.7805 41.7805 42.3311 42.3286 41.7836 41.7838 42.2943 42.3013 42.3318 42.3318 42.3962 42.3905 41.7807 41.7807 42.0189 42.088 41.838 41.8739 41.8798 41.7871 41.7807 41.7807 42.0463 42.0473 41.7807 41.7807 41.7807 41.7807 41.7807 41.7807 41.7784 41.781 41.7807 41.7807 41.7807 41.7807 41.7807 41.6996 41.6996 41.7807 41.7807 41.7807 41.7805 41.7752 41.7752 41.7805 41.7807 41.7807 41.7807 41.7807 41.6659 41.7807 41.7807 41.7807 41.7807 41.7807 41.7807 41.7807 41.7806 41.7778 41.7804 41.7239 41.7712 
        </DataArray>
        <DataArray type="Float32" Name="F0_Mass fraction_SG_co2liq_mod.xml" format="ascii">
9.59451e-09 9.59437e-09 9.59659e-09 9.59637e-09 3.32822e-09 3.34364e-09 9.55557e-09 9.55263e-09 3.66883e-09 3.63456e-09 2.98294e-09 2.98285e-09 2.62754e-09 2.66272e-09 9.5944e-09 9.59441e-09 6.72857e-09 6.0136e-09 8.85574e-09 8.42418e-09 8.3531e-09 9.51376e-09 9.5944e-09 9.5944e-09 6.53046e-09 6.51802e-09 9.5944e-09 9.5944e-09 9.5944e-09 9.5944e-09 9.5944e-09 9.5944e-09 9.6254e-09 9.58944e-09 9.5944e-09 9.5944e-09 9.5944e-09 9.5944e-09 9.5944e-09 1.07316e-08 1.07315e-08 9.5944e-09 9.5944e-09 9.59442e-09 9.5961e-09 9.66794e-09 9.66837e-09 9.59616e-09 9.59442e-09 9.5944e-09 9.5944e-09 9.5944e-09 1.1412e-08 9.5944e-09 9.5944e-09 9.5944e-09 9.5944e-09 9.5944e-09 9.5944e-09 9.59445e-09 9.59503e-09 9.6327e-09 9.5984e-09 1.03789e-08 9.72229e-09 
        </DataArray>
        <DataArray type="Float32" Name="F1_Alpha_SG_co2gas_mod.xml" format="ascii">
1 1 1 1 1 1 1 1 1 1 1 1 1 1 1 1 1 1 1 1 1 1 1 1 1 1 1 1 1 1 1 1 1 1 1 1 1 1 1 1 1 1 1 1 1 1 1 1 1 1 1 1 1 1 1 1 1 1 1 1 1 1 1 1 1 
        </DataArray>
        <DataArray type="Float32" Name="F1_Density_SG_co2gas_mod.xml" format="ascii">
106.137 106.138 106.113 106.116 316.314 314.786 106.577 106.61 285.607 288.413 355.229 355.24 406.213 400.521 106.138 106.138 152.495 171.133 115.163 121.182 122.234 107.054 106.138 106.138 157.236 157.544 106.138 106.138 106.138 106.138 106.138 106.138 105.79 106.194 106.138 106.138 106.138 106.138 106.138 94.7099 94.7103 106.138 106.138 106.138 106.119 105.316 105.311 106.118 106.138 106.138 106.138 106.138 88.9768 106.138 106.138 106.138 106.138 106.138 106.138 106.137 106.131 105.708 106.093 97.9822 104.717 
        </DataArray>
        <DataArray type="Float32" Name="F1_Temperature_SG_co2gas_mod.xml" format="ascii">
466.385 466.385 466.379 466.379 411.548 411.198 466.504 466.513 420.268 422.457 367.06 367.061 375.817 375.495 466.385 466.385 472.286 473.259 468.917 471.006 471.222 466.911 466.385 466.385 479.553 479.463 466.385 466.385 466.385 466.385 466.385 466.385 466.294 466.4 466.385 466.385 466.385 466.385 466.385 463.356 463.356 466.385 466.385 466.385 466.38 466.169 466.167 466.38 466.385 466.385 466.385 466.385 469.411 466.385 466.385 466.385 466.385 466.385 466.385 466.385 466.383 466.272 466.373 464.199 466.026 
        </DataArray>
        <DataArray type="Float32" Name="F1_Mass fraction_SG_co2gas_mod.xml" format="ascii">
1 1 1 1 1 1 1 1 1 1 1 1 1 1 1 1 1 1 1 1 1 1 1 1 1 1 1 1 1 1 1 1 1 1 1 1 1 1 1 1 1 1 1 1 1 1 1 1 1 1 1 1 1 1 1 1 1 1 1 1 1 1 1 1 1 
        </DataArray>
        <DataArray type="Float32" Name="Density_Mixture" format="ascii">
106.137 106.138 106.113 106.116 316.314 314.786 106.577 106.61 285.607 288.413 355.229 355.24 406.213 400.521 106.138 106.138 152.495 171.133 115.163 121.182 122.234 107.054 106.138 106.138 157.236 157.544 106.138 106.138 106.138 106.138 106.138 106.138 105.79 106.194 106.138 106.138 106.138 106.138 106.138 94.7099 94.7104 106.138 106.138 106.138 106.119 105.316 105.311 106.118 106.138 106.138 106.138 106.138 88.9768 106.138 106.138 106.138 106.138 106.138 106.138 106.137 106.131 105.708 106.093 97.9823 104.717 
        </DataArray>
        <DataArray type="Float32" Name="Pressure_Mixture" format="ascii">
6.27177e+06 6.27188e+06 6.27009e+06 6.27027e+06 1.79378e+07 1.78309e+07 6.3033e+06 6.30569e+06 1.64705e+07 1.67324e+07 1.79684e+07 1.79691e+07 2.11889e+07 2.08609e+07 6.27186e+06 6.27185e+06 9.52825e+06 1.08252e+07 6.92266e+06 7.3674e+06 7.44289e+06 6.34175e+06 6.27186e+06 6.27186e+06 1.00173e+07 1.00366e+07 6.27186e+06 6.27186e+06 6.27186e+06 6.27186e+06 6.27186e+06 6.27186e+06 6.247e+06 6.27586e+06 6.27186e+06 6.27186e+06 6.27186e+06 6.27186e+06 6.27186e+06 5.45968e+06 5.45971e+06 6.27186e+06 6.27186e+06 6.27185e+06 6.27049e+06 6.21314e+06 6.2128e+06 6.27044e+06 6.27184e+06 6.27186e+06 6.27186e+06 6.27186e+06 5.15347e+06 6.27186e+06 6.27186e+06 6.27186e+06 6.27186e+06 6.27185e+06 6.27186e+06 6.27182e+06 6.27135e+06 6.24116e+06 6.26864e+06 5.69089e+06 6.1706e+06 
        </DataArray>
        <DataArray type="Float32" Name="Velocity_Mixture" NumberOfComponents="3" format="ascii">
-0.00319013 0.000126328 0 0.000550552 0.000261124 0 -0.0350037 0.0697381 0 -0.0317236 -0.060031 0 271.033 -6.79527 0 271.965 8.72588 0 1.03401 -0.36241 0 1.11879 0.397306 0 259.624 46.0598 0 256.28 -38.8124 0 333.513 0.379425 0 333.507 -0.382079 0 305.593 -38.9477 0 302.103 52.0778 0 0.000158384 0.000151877 0 -0.000334357 0.000253457 0 107.939 -7.82956 0 104.723 38.7116 0 21.9867 -5.72391 0 39.1488 -9.26623 0 38.6342 8.29696 0 1.07189 -7.93428 0 0 0 0 0 0 0 120.206 -19.3728 0 121.167 20.9172 0 0 0 0 0 0 0 0 0 0 0 0 0 0 0 0 0 0 0 -0.47512 -0.259552 0 -0.230824 -0.217115 0 0 0 0 0 0 0 0 0 0 0 0 0 0 0 0 7.85723 -1.33552 0 7.85692 1.33587 0 0 0 0 0 0 0 5.21464e-05 -0.000123587 0 0.00812387 -0.00994802 0 0.393356 -0.255544 0 0.426817 0.244508 0 0.00914059 0.00984171 0 6.54029e-05 0.000127011 0 0 0 0 0 0 0 0 0 0 42.3088 0.000333518 0 0 0 0 0 0 0 0 0 0 0 0 0 1.45413e-05 0 0 0 0 0 0.00204883 -7.56652e-05 0 0.00478807 0.000857186 0 0.334774 0.0498665 0 0.189322 -0.00639107 0 9.15288 -0.00178748 0 6.48574 -0.190583 0 
        </DataArray>
        <DataArray type="Float32" Name="gradRho" format="ascii">
0.00694577 0.00645278 0.112662 0.20951 62.5344 62.505 6.11522 5.70644 64.5147 73.1795 27.0282 28.0952 27.8114 27.13 0.000126453 0.000369946 52.0638 50.3865 13.6157 18.5655 17.3729 17.5849 5.03277e-05 1.9632e-05 64.8836 65.7617 0 5.11386e-08 1.4927e-07 4.30528e-07 2.54203e-06 2.46959e-10 0.410358 3.1484 0 0 0 0 0 0.907057 0.907232 1.92647e-09 4.4036e-07 7.04041e-05 0.0045072 0.0891448 0.0877124 0.00423271 6.37505e-05 3.76867e-07 1.73097e-09 0 0.82659 0 2.04804e-10 4.63273e-08 1.01842e-07 2.88833e-05 1.53448e-05 0.00234878 0.00351619 0.17253 0.137051 2.67162 2.41448 
        </DataArray>
      </CellData>
    </Piece>
  </UnstructuredGrid>
</VTKFile>
