<?xml version="1.0"?>
<VTKFile type="UnstructuredGrid" version="0.1" byte_order="LittleEndian">
  <UnstructuredGrid>
    <Piece NumberOfPoints="50" NumberOfCells="65">
      <Points>
        <DataArray type="Float32" NumberOfComponents="3" format="ascii">
          0 5 0 0 -5 0 15 0.2 0 15 -0.2 0 35 0.2 0 35 -0.2 0 2.14286 4.31429 0 4.28571 3.62857 0 6.42857 2.94286 0 8.57143 2.25714 0 10.7143 1.57143 0 12.8571 0.885714 0 17.8571 0.2 0 20.7143 0.2 0 23.5714 0.2 0 26.4286 0.2 0 29.2857 0.2 0 32.1429 0.2 0 32.1429 -0.2 0 29.2857 -0.2 0 26.4286 -0.2 0 23.5714 -0.2 0 20.7143 -0.2 0 17.8571 -0.2 0 12.8571 -0.885714 0 10.7143 -1.57143 0 8.57143 -2.25714 0 6.42857 -2.94286 0 4.28571 -3.62857 0 2.14286 -4.31429 0 0 -2.5 0 0 -6.16307e-12 0 0 2.5 0 3.95974 -5.7158e-13 0 13.9286 -3.66374e-15 0 6.61813 2.81487e-12 0 2.86365 2.0434 0 2.86365 -2.0434 0 9.43036 1.987e-12 0 11.3926 2.79508e-14 0 4.83116 1.72297 0 4.83116 -1.72297 0 1.90629 -3.21031e-12 0 33.5714 0 0 16.4286 -1.80625e-18 0 25 6.93889e-18 0 19.2857 -6.93889e-18 0 30.7143 0 0 22.1429 0 0 27.8571 0 0 
        </DataArray>
      </Points>
      <Cells>
        <DataArray type="Int32" Name="connectivity" format="ascii">
          8 9 35 26 27 35 8 35 40 27 41 35 30 42 37 32 36 42 33 40 35 33 35 41 29 30 37 6 36 32 30 31 42 31 32 42 0 6 32 30 29 1 26 35 38 9 38 35 6 7 36 28 29 37 7 40 36 33 41 37 33 36 40 28 37 41 9 10 38 25 26 38 33 42 36 33 37 42 11 34 24 24 25 39 10 11 39 25 38 39 10 39 38 11 24 39 27 28 41 7 8 40 2 34 11 3 24 34 2 3 34 2 44 12 3 23 44 4 17 43 5 43 18 12 46 13 13 48 14 14 45 15 15 49 16 16 47 17 18 47 19 19 49 20 20 45 21 21 48 22 22 46 23 2 3 44 4 43 5 12 44 23 12 23 46 13 46 22 13 22 48 14 21 45 14 48 21 15 45 20 15 20 49 16 19 47 16 49 19 17 18 43 17 47 18 
        </DataArray>
        <DataArray type="Int32" Name="offsets" format="ascii">
          3 6 9 12 15 18 21 24 27 30 33 36 39 42 45 48 51 54 57 60 63 66 69 72 75 78 81 84 87 90 93 96 99 102 105 108 111 114 117 120 123 126 129 132 135 138 141 144 147 150 153 156 159 162 165 168 171 174 177 180 183 186 189 192 195 
        </DataArray>
        <DataArray type="UInt8" Name="types" format="ascii">
          5 5 5 5 5 5 5 5 5 5 5 5 5 5 5 5 5 5 5 5 5 5 5 5 5 5 5 5 5 5 5 5 5 5 5 5 5 5 5 5 5 5 5 5 5 5 5 5 5 5 5 5 5 5 5 5 5 5 5 5 5 5 5 5 5 
        </DataArray>
      </Cells>
      <CellData>
        <DataArray type="Float32" Name="F0_Alpha_SG_co2liq_mod.xml" format="ascii">
1.72339e-10 1.72396e-10 1.71093e-10 1.71497e-10 1.65192e-10 1.65109e-10 1.68136e-10 1.67919e-10 1.64016e-10 1.63865e-10 1.67756e-10 1.67756e-10 1.62286e-10 1.62586e-10 1.72679e-10 1.72635e-10 1.63212e-10 1.62952e-10 1.63761e-10 1.64654e-10 1.64968e-10 1.63318e-10 1.72682e-10 1.72682e-10 1.64991e-10 1.65028e-10 1.72682e-10 1.72682e-10 1.72682e-10 1.72682e-10 1.72684e-10 1.72682e-10 1.6726e-10 1.67569e-10 1.72682e-10 1.72682e-10 1.72682e-10 1.72682e-10 1.72682e-10 1.733e-10 1.733e-10 1.72682e-10 1.72682e-10 1.72684e-10 1.72709e-10 1.72877e-10 1.72877e-10 1.72709e-10 1.72684e-10 1.72682e-10 1.72682e-10 1.72682e-10 1.73339e-10 1.72682e-10 1.72682e-10 1.72682e-10 1.72682e-10 1.72683e-10 1.72682e-10 1.72685e-10 1.727e-10 1.72828e-10 1.72721e-10 1.7322e-10 1.72926e-10 
        </DataArray>
        <DataArray type="Float32" Name="F0_Density_SG_co2liq_mod.xml" format="ascii">
5918.29 5914.85 5989.62 5966.13 6486.92 6492.21 6164.52 6177.03 6566.77 6574.8 6346.45 6346.43 6707.73 6687.59 5897.33 5900.09 6546.04 6564.52 6444.66 6419.98 6401.84 6469.2 5897.11 5897.13 6446.98 6444.61 5897.13 5897.13 5897.12 5897.12 5897.02 5897.13 6200.2 6182.03 5897.13 5897.13 5897.13 5897.13 5897.13 5854.91 5854.91 5897.13 5897.13 5897.01 5895.38 5884.49 5884.5 5895.38 5897 5897.12 5897.13 5897.13 5848.18 5897.13 5897.13 5897.13 5897.13 5897.06 5897.12 5896.93 5895.99 5887.69 5894.65 5860.94 5881.21 
        </DataArray>
        <DataArray type="Float32" Name="F0_Temperature_SG_co2liq_mod.xml" format="ascii">
41.8421 41.8328 41.9977 41.9531 42.416 42.418 42.2213 42.2326 42.4439 42.4464 42.3512 42.3511 42.4814 42.4769 41.7813 41.7899 42.4372 42.4432 42.3988 42.388 42.3795 42.409 41.7806 41.7807 42.3998 42.3988 41.7807 41.7807 41.7806 41.7806 41.7803 41.7807 42.2524 42.237 41.7807 41.7807 41.7807 41.7807 41.7807 41.6177 41.6177 41.7807 41.7807 41.7803 41.7751 41.7387 41.7388 41.7751 41.7803 41.7807 41.7807 41.7807 41.5837 41.7807 41.7807 41.7807 41.7807 41.7805 41.7806 41.78 41.7771 41.7498 41.7728 41.6458 41.7271 
        </DataArray>
        <DataArray type="Float32" Name="F0_Mass fraction_SG_co2liq_mod.xml" format="ascii">
8.80994e-09 8.92409e-09 7.07453e-09 7.57251e-09 2.47268e-09 2.46078e-09 4.77755e-09 4.67686e-09 2.29265e-09 2.28155e-09 2.76248e-09 2.76255e-09 1.9946e-09 2.02485e-09 9.586e-09 9.47218e-09 2.54959e-09 2.50081e-09 3.12048e-09 3.04966e-09 3.10558e-09 3.05199e-09 9.59525e-09 9.59422e-09 2.75542e-09 2.76219e-09 9.5944e-09 9.59441e-09 9.59493e-09 9.59484e-09 9.59892e-09 9.59443e-09 4.68215e-09 4.83306e-09 9.5944e-09 9.5944e-09 9.5944e-09 9.5944e-09 9.5944e-09 1.19961e-08 1.1996e-08 9.59441e-09 9.59461e-09 9.59963e-09 9.66856e-09 1.01692e-08 1.01687e-08 9.66864e-09 9.59967e-09 9.59461e-09 9.59441e-09 9.5944e-09 1.28084e-08 9.5944e-09 9.5944e-09 9.59441e-09 9.5945e-09 9.59735e-09 9.5948e-09 9.60303e-09 9.6427e-09 1.00148e-08 9.70018e-09 1.15467e-08 1.03369e-08 
        </DataArray>
        <DataArray type="Float32" Name="F1_Alpha_SG_co2gas_mod.xml" format="ascii">
1 1 1 1 1 1 1 1 1 1 1 1 1 1 1 1 1 1 1 1 1 1 1 1 1 1 1 1 1 1 1 1 1 1 1 1 1 1 1 1 1 1 1 1 1 1 1 1 1 1 1 1 1 1 1 1 1 1 1 1 1 1 1 1 1 
        </DataArray>
        <DataArray type="Float32" Name="F1_Density_SG_co2gas_mod.xml" format="ascii">
115.773 114.264 144.855 135.117 433.372 435.603 216.947 221.782 469.785 472.215 385.397 385.386 545.758 536.982 106.232 107.532 419.046 427.741 338.213 346.619 340.065 346.18 106.128 106.14 386.036 385.035 106.138 106.138 106.132 106.133 106.087 106.137 221.489 214.34 106.138 106.138 106.138 106.138 106.138 84.5823 84.5833 106.138 106.135 106.079 105.309 100.037 100.042 105.308 106.078 106.135 106.138 106.138 79.1446 106.138 106.138 106.138 106.137 106.105 106.133 106.041 105.597 101.606 104.96 87.924 98.3867 
        </DataArray>
        <DataArray type="Float32" Name="F1_Temperature_SG_co2gas_mod.xml" format="ascii">
469.394 468.829 480.099 478.723 371.811 372.022 476.62 476.691 372.484 373.505 353.949 353.948 364.969 364.53 466.411 466.761 409.03 408.19 454.585 431.059 429.979 456.528 466.383 466.386 399.322 399.282 466.385 466.385 466.384 466.384 466.372 466.385 496.625 497.559 466.385 466.385 466.385 466.385 466.385 460.516 460.517 466.385 466.385 466.37 466.167 464.763 464.761 466.166 466.37 466.385 466.385 466.385 468.663 466.385 466.385 466.385 466.385 466.377 466.384 466.36 466.243 465.177 466.08 461.367 464.462 
        </DataArray>
        <DataArray type="Float32" Name="F1_Mass fraction_SG_co2gas_mod.xml" format="ascii">
1 1 1 1 1 1 1 1 1 1 1 1 1 1 1 1 1 1 1 1 1 1 1 1 1 1 1 1 1 1 1 1 1 1 1 1 1 1 1 1 1 1 1 1 1 1 1 1 1 1 1 1 1 1 1 1 1 1 1 1 1 1 1 1 1 
        </DataArray>
        <DataArray type="Float32" Name="Density_Mixture" format="ascii">
115.773 114.264 144.855 135.117 433.372 435.603 216.947 221.782 469.785 472.215 385.397 385.386 545.758 536.982 106.232 107.532 419.046 427.741 338.213 346.619 340.065 346.18 106.128 106.14 386.036 385.035 106.138 106.138 106.132 106.133 106.087 106.137 221.489 214.34 106.138 106.138 106.138 106.138 106.138 84.5823 84.5833 106.138 106.135 106.079 105.309 100.037 100.042 105.308 106.078 106.135 106.138 106.138 79.1446 106.138 106.138 106.138 106.137 106.105 106.133 106.041 105.597 101.606 104.96 87.924 98.3867 
        </DataArray>
        <DataArray type="Float32" Name="Pressure_Mixture" format="ascii">
6.97201e+06 6.86023e+06 9.1702e+06 8.46723e+06 2.24138e+07 2.2547e+07 1.40659e+07 1.44013e+07 2.44172e+07 2.46178e+07 1.8839e+07 1.88384e+07 2.79162e+07 2.74189e+07 6.27863e+06 6.37173e+06 2.38988e+07 2.43611e+07 2.13457e+07 2.07192e+07 2.02575e+07 2.19667e+07 6.27118e+06 6.27201e+06 2.14045e+07 2.13444e+07 6.27186e+06 6.27185e+06 6.27143e+06 6.2715e+06 6.26822e+06 6.27184e+06 1.50196e+07 1.45351e+07 6.27186e+06 6.27186e+06 6.27186e+06 6.27186e+06 6.27186e+06 4.74639e+06 4.74646e+06 6.27185e+06 6.27169e+06 6.26765e+06 6.21265e+06 5.83698e+06 5.83727e+06 6.21259e+06 6.26762e+06 6.27169e+06 6.27185e+06 6.27186e+06 4.47752e+06 6.27186e+06 6.27186e+06 6.27185e+06 6.27177e+06 6.26948e+06 6.27153e+06 6.26492e+06 6.23319e+06 5.94849e+06 6.18778e+06 4.97973e+06 5.72178e+06 
        </DataArray>
        <DataArray type="Float32" Name="Velocity_Mixture" NumberOfComponents="3" format="ascii">
26.4654 -1.10259 0 16.0252 3.83548 0 83.8453 -7.50471 0 66.9094 -6.82538 0 322.176 15.1772 0 322.586 -18.1696 0 204.896 -7.92219 0 210.292 10.2748 0 309.27 44.9651 0 309.175 -45.0259 0 343.523 0.0906653 0 343.526 -0.0882564 0 288.144 -42.7565 0 289.703 45.4542 0 0.107802 -0.625837 0 3.23107 -1.6259 0 288.906 -62.6376 0 291.607 76.2941 0 274.391 -52.8587 0 274.903 24.6563 0 278.686 -15.6242 0 267.19 76.7375 0 -0.279759 -0.240701 0 0.0110892 -0.00625423 0 295.3 -15.5691 0 295.168 17.0856 0 9.31385e-06 0 0 -0.000100131 6.60732e-05 0 -0.0140294 -0.0038369 0 -0.0023158 0.0148032 0 -0.103168 0.0858543 0 -0.000504105 0.000743708 0 177.167 58.2325 0 197.485 -31.2372 0 0 0 0 0 0 0 0 0 0 0 0 0 0 0 0 23.904 -0.801237 0 23.9069 0.805375 0 0 -2.45247e-05 0 0.00110366 -0.000871779 0 0.0301233 -0.0162461 0 0.472159 -0.154363 0 4.26084 -0.6354 0 4.28726 0.624813 0 0.491975 0.14758 0 0.0320481 0.0156912 0 0.00120517 0.000853027 0 0 2.68171e-05 0 0 0 0 64.824 0.00511661 0 0 0 0 0 0 0 0.000516461 0 0 0.000905071 0.000113281 0 0.0301825 0.00296556 0 0.0198725 -0.000566167 0 0.436214 -0.0107723 0 0.587032 0.038702 0 6.50096 0.134846 0 5.25636 -0.105293 0 39.9749 -0.00358539 0 31.4245 -0.134733 0 
        </DataArray>
        <DataArray type="Float32" Name="gradRho" format="ascii">
9.7226 7.32386 29.5207 31.0448 21.724 22.1271 62.352 66.0515 37.3322 42.0701 33.3201 34.875 17.3629 15.8644 2.02601 2.89816 34.2059 30.8947 73.3266 54.8464 56.5587 73.9496 0.48467 0.0329407 31.7514 28.8395 0.000135967 0.00180014 0.0175601 0.0234612 0.0139531 0.00252198 55.9217 52.9191 3.77169e-06 4.28718e-06 6.52878e-07 2.48458e-07 2.06387e-07 0.831701 0.832025 1.36835e-05 0.000343975 0.00562421 0.0486042 0.233022 0.233255 0.0484547 0.00550652 0.000329769 1.12306e-05 9.14665e-08 0.784046 7.07932e-06 1.06599e-05 0.000367222 0.000479377 0.0125329 0.0102543 0.159064 0.183085 1.32437 1.20736 3.9831 3.82083 
        </DataArray>
      </CellData>
    </Piece>
  </UnstructuredGrid>
</VTKFile>
