<?xml version="1.0"?>
<VTKFile type="UnstructuredGrid" version="0.1" byte_order="LittleEndian">
  <UnstructuredGrid>
    <Piece NumberOfPoints="50" NumberOfCells="65">
      <Points>
        <DataArray type="Float32" NumberOfComponents="3" format="ascii">
          0 5 0 0 -5 0 15 0.2 0 15 -0.2 0 35 0.2 0 35 -0.2 0 2.14286 4.31429 0 4.28571 3.62857 0 6.42857 2.94286 0 8.57143 2.25714 0 10.7143 1.57143 0 12.8571 0.885714 0 17.8571 0.2 0 20.7143 0.2 0 23.5714 0.2 0 26.4286 0.2 0 29.2857 0.2 0 32.1429 0.2 0 32.1429 -0.2 0 29.2857 -0.2 0 26.4286 -0.2 0 23.5714 -0.2 0 20.7143 -0.2 0 17.8571 -0.2 0 12.8571 -0.885714 0 10.7143 -1.57143 0 8.57143 -2.25714 0 6.42857 -2.94286 0 4.28571 -3.62857 0 2.14286 -4.31429 0 0 -2.5 0 0 -6.16307e-12 0 0 2.5 0 3.95974 -5.7158e-13 0 13.9286 -3.66374e-15 0 6.61813 2.81487e-12 0 2.86365 2.0434 0 2.86365 -2.0434 0 9.43036 1.987e-12 0 11.3926 2.79508e-14 0 4.83116 1.72297 0 4.83116 -1.72297 0 1.90629 -3.21031e-12 0 33.5714 0 0 16.4286 -1.80625e-18 0 25 6.93889e-18 0 19.2857 -6.93889e-18 0 30.7143 0 0 22.1429 0 0 27.8571 0 0 
        </DataArray>
      </Points>
      <Cells>
        <DataArray type="Int32" Name="connectivity" format="ascii">
          8 9 35 26 27 35 8 35 40 27 41 35 30 42 37 32 36 42 33 40 35 33 35 41 29 30 37 6 36 32 30 31 42 31 32 42 0 6 32 30 29 1 26 35 38 9 38 35 6 7 36 28 29 37 7 40 36 33 41 37 33 36 40 28 37 41 9 10 38 25 26 38 33 42 36 33 37 42 11 34 24 24 25 39 10 11 39 25 38 39 10 39 38 11 24 39 27 28 41 7 8 40 2 34 11 3 24 34 2 3 34 2 44 12 3 23 44 4 17 43 5 43 18 12 46 13 13 48 14 14 45 15 15 49 16 16 47 17 18 47 19 19 49 20 20 45 21 21 48 22 22 46 23 2 3 44 4 43 5 12 44 23 12 23 46 13 46 22 13 22 48 14 21 45 14 48 21 15 45 20 15 20 49 16 19 47 16 49 19 17 18 43 17 47 18 
        </DataArray>
        <DataArray type="Int32" Name="offsets" format="ascii">
          3 6 9 12 15 18 21 24 27 30 33 36 39 42 45 48 51 54 57 60 63 66 69 72 75 78 81 84 87 90 93 96 99 102 105 108 111 114 117 120 123 126 129 132 135 138 141 144 147 150 153 156 159 162 165 168 171 174 177 180 183 186 189 192 195 
        </DataArray>
        <DataArray type="UInt8" Name="types" format="ascii">
          5 5 5 5 5 5 5 5 5 5 5 5 5 5 5 5 5 5 5 5 5 5 5 5 5 5 5 5 5 5 5 5 5 5 5 5 5 5 5 5 5 5 5 5 5 5 5 5 5 5 5 5 5 5 5 5 5 5 5 5 5 5 5 5 5 
        </DataArray>
      </Cells>
      <CellData>
        <DataArray type="Float32" Name="F0_Alpha_SG_co2liq_mod.xml" format="ascii">
1.72682e-10 1.72682e-10 1.72682e-10 1.72682e-10 1.67924e-10 1.67958e-10 1.72682e-10 1.72682e-10 1.68797e-10 1.68749e-10 1.68052e-10 1.68052e-10 1.66603e-10 1.66739e-10 1.72682e-10 1.72682e-10 1.71945e-10 1.71602e-10 1.72596e-10 1.72519e-10 1.72512e-10 1.7272e-10 1.72682e-10 1.72682e-10 1.7181e-10 1.718e-10 1.72682e-10 1.72682e-10 1.72682e-10 1.72682e-10 1.72682e-10 1.72682e-10 1.72692e-10 1.72682e-10 1.72682e-10 1.72682e-10 1.72682e-10 1.72682e-10 1.72682e-10 1.72969e-10 1.72969e-10 1.72682e-10 1.72682e-10 1.72682e-10 1.72682e-10 1.72696e-10 1.72696e-10 1.72682e-10 1.72682e-10 1.72682e-10 1.72682e-10 1.72682e-10 1.73061e-10 1.72682e-10 1.72682e-10 1.72682e-10 1.72682e-10 1.72682e-10 1.72682e-10 1.72682e-10 1.72682e-10 1.72688e-10 1.72682e-10 1.72874e-10 1.72709e-10 
        </DataArray>
        <DataArray type="Float32" Name="F0_Density_SG_co2liq_mod.xml" format="ascii">
5897.13 5897.13 5897.1 5897.13 6221 6219.09 5897.14 5897.14 6161.45 6162.91 6288.27 6288.29 6372.15 6363.3 5897.13 5897.13 5942.15 5962.77 5902.54 5907.33 5907.78 5894.69 5897.13 5897.13 5949.71 5950.34 5897.13 5897.13 5897.13 5897.13 5897.13 5897.13 5896.5 5897.12 5897.13 5897.13 5897.13 5897.13 5897.13 5878.35 5878.35 5897.13 5897.13 5897.13 5897.12 5896.26 5896.25 5897.12 5897.13 5897.13 5897.13 5897.13 5869.55 5897.13 5897.13 5897.13 5897.13 5897.13 5897.13 5897.13 5897.13 5896.75 5897.1 5884.68 5895.39 
        </DataArray>
        <DataArray type="Float32" Name="F0_Temperature_SG_co2liq_mod.xml" format="ascii">
41.7807 41.7807 41.7806 41.7807 42.2691 42.2676 41.7807 41.7807 42.2184 42.2198 42.3166 42.3166 42.3648 42.3602 41.7807 41.7807 41.9015 41.9463 41.7973 41.8115 41.8128 41.7729 41.7807 41.7807 41.9185 41.9199 41.7807 41.7807 41.7807 41.7807 41.7807 41.7807 41.7787 41.7806 41.7807 41.7807 41.7807 41.7807 41.7807 41.7166 41.7166 41.7807 41.7807 41.7807 41.7806 41.7779 41.7779 41.7806 41.7807 41.7807 41.7807 41.7807 41.6824 41.7807 41.7807 41.7807 41.7807 41.7807 41.7807 41.7807 41.7807 41.7795 41.7806 41.7394 41.7752 
        </DataArray>
        <DataArray type="Float32" Name="F0_Mass fraction_SG_co2liq_mod.xml" format="ascii">
9.59445e-09 9.59436e-09 9.59556e-09 9.59438e-09 3.92829e-09 3.93841e-09 9.59419e-09 9.5941e-09 4.38517e-09 4.38926e-09 3.12904e-09 3.12895e-09 2.87033e-09 2.89972e-09 9.5944e-09 9.5944e-09 8.08773e-09 7.56086e-09 9.37473e-09 9.19279e-09 9.17584e-09 9.69889e-09 9.5944e-09 9.5944e-09 7.90299e-09 7.88716e-09 9.5944e-09 9.5944e-09 9.5944e-09 9.5944e-09 9.5944e-09 9.5944e-09 9.62082e-09 9.59494e-09 9.5944e-09 9.5944e-09 9.5944e-09 9.5944e-09 9.5944e-09 1.04846e-08 1.04846e-08 9.5944e-09 9.5944e-09 9.5944e-09 9.59486e-09 9.63106e-09 9.63167e-09 9.59489e-09 9.5944e-09 9.5944e-09 9.5944e-09 9.5944e-09 1.11352e-08 9.5944e-09 9.5944e-09 9.5944e-09 9.5944e-09 9.5944e-09 9.5944e-09 9.59441e-09 9.59453e-09 9.61043e-09 9.59572e-09 1.01598e-08 9.6683e-09 
        </DataArray>
        <DataArray type="Float32" Name="F1_Alpha_SG_co2gas_mod.xml" format="ascii">
1 1 1 1 1 1 1 1 1 1 1 1 1 1 1 1 1 1 1 1 1 1 1 1 1 1 1 1 1 1 1 1 1 1 1 1 1 1 1 1 1 1 1 1 1 1 1 1 1 1 1 1 1 1 1 1 1 1 1 1 1 1 1 1 1 
        </DataArray>
        <DataArray type="Float32" Name="F1_Density_SG_co2gas_mod.xml" format="ascii">
106.137 106.138 106.125 106.138 265.932 265.22 106.14 106.141 237.17 236.938 337.725 337.736 369.86 365.901 106.138 106.138 126.33 135.332 108.67 110.861 111.07 104.974 106.138 106.138 129.346 129.612 106.138 106.138 106.138 106.138 106.138 106.138 105.841 106.132 106.138 106.138 106.138 106.138 106.138 96.9775 96.9775 106.138 106.138 106.138 106.133 105.726 105.72 106.132 106.138 106.138 106.138 106.138 91.2232 106.138 106.138 106.138 106.138 106.138 106.138 106.138 106.136 105.958 106.123 100.131 105.312 
        </DataArray>
        <DataArray type="Float32" Name="F1_Temperature_SG_co2gas_mod.xml" format="ascii">
466.385 466.385 466.382 466.385 427.963 427.796 466.386 466.386 433.572 435.137 373.096 373.097 381.153 380.989 466.385 466.385 471.671 472.753 467.097 467.803 467.849 466.087 466.385 466.385 473.232 473.297 466.385 466.385 466.385 466.385 466.385 466.385 466.307 466.384 466.385 466.385 466.385 466.385 466.385 463.972 463.972 466.385 466.385 466.385 466.384 466.277 466.275 466.384 466.385 466.385 466.385 466.385 469.078 466.385 466.385 466.385 466.385 466.385 466.385 466.385 466.385 466.338 466.381 464.785 466.174 
        </DataArray>
        <DataArray type="Float32" Name="F1_Mass fraction_SG_co2gas_mod.xml" format="ascii">
1 1 1 1 1 1 1 1 1 1 1 1 1 1 1 1 1 1 1 1 1 1 1 1 1 1 1 1 1 1 1 1 1 1 1 1 1 1 1 1 1 1 1 1 1 1 1 1 1 1 1 1 1 1 1 1 1 1 1 1 1 1 1 1 1 
        </DataArray>
        <DataArray type="Float32" Name="Density_Mixture" format="ascii">
106.137 106.138 106.125 106.138 265.932 265.22 106.14 106.141 237.17 236.938 337.725 337.736 369.86 365.901 106.138 106.138 126.33 135.332 108.67 110.861 111.07 104.974 106.138 106.138 129.346 129.612 106.138 106.138 106.138 106.138 106.138 106.138 105.841 106.132 106.138 106.138 106.138 106.138 106.138 96.9775 96.9775 106.138 106.138 106.138 106.133 105.726 105.72 106.132 106.138 106.138 106.138 106.138 91.2232 106.138 106.138 106.138 106.138 106.138 106.138 106.138 106.136 105.958 106.123 100.131 105.312 
        </DataArray>
        <DataArray type="Float32" Name="Pressure_Mixture" format="ascii">
6.27181e+06 6.27189e+06 6.27092e+06 6.27188e+06 1.55707e+07 1.55203e+07 6.27203e+06 6.2721e+06 1.39833e+07 1.40223e+07 1.73341e+07 1.73348e+07 1.94987e+07 1.92718e+07 6.27186e+06 6.27186e+06 7.73015e+06 8.36528e+06 6.45385e+06 6.61314e+06 6.62799e+06 6.18885e+06 6.27186e+06 6.27186e+06 7.96508e+06 7.98446e+06 6.27186e+06 6.27186e+06 6.27186e+06 6.27186e+06 6.27186e+06 6.27186e+06 6.25065e+06 6.27142e+06 6.27186e+06 6.27186e+06 6.27186e+06 6.27186e+06 6.27186e+06 5.62026e+06 5.62026e+06 6.27186e+06 6.27186e+06 6.27186e+06 6.27149e+06 6.24247e+06 6.24198e+06 6.27146e+06 6.27186e+06 6.27186e+06 6.27186e+06 6.27186e+06 5.30154e+06 6.27186e+06 6.27186e+06 6.27186e+06 6.27186e+06 6.27186e+06 6.27186e+06 6.27185e+06 6.27175e+06 6.25898e+06 6.27079e+06 5.8436e+06 6.21296e+06 
        </DataArray>
        <DataArray type="Float32" Name="Velocity_Mixture" NumberOfComponents="3" format="ascii">
-0.00156225 -2.33259e-05 0 0.000877903 0.000157836 0 -0.0219657 0.0242739 0 0.000644721 0.00350418 0 238.89 -13.0971 0 239.524 14.593 0 0.00834717 0.000145725 0 0.00729471 0.00382443 0 221.136 45.9639 0 218.075 -38.4569 0 325.454 0.638653 0 325.449 -0.640997 0 301.459 -35.2876 0 296.379 51.9878 0 1.41882e-05 1.39817e-05 0 -5.85658e-05 4.35971e-05 0 53.1536 -0.889201 0 50.1912 19.9623 0 5.88415 -2.48725 0 12.0099 -3.88091 0 11.8251 3.76749 0 -2.40179 -4.68339 0 0 0 0 0 0 0 61.1216 -11.9666 0 61.8586 12.9927 0 0 0 0 0 0 0 0 0 0 0 0 0 0 0 0 0 0 0 -0.462479 -0.0842054 0 -0.143346 -0.078526 0 0 0 0 0 0 0 0 0 0 0 0 0 0 0 0 5.78814 -1.40869 0 5.78806 1.40896 0 0 0 0 0 0 0 0 -1.79411e-05 0 0.00204275 -0.00346575 0 0.182086 -0.169801 0 0.202449 0.163214 0 0.00237786 0.00352958 0 0 2.21511e-05 0 0 0 0 0 0 0 0 0 0 36.0861 6.29004e-05 0 0 0 0 0 0 0 0 0 0 0 0 0 0 0 0 0 0 0 0.000313102 -3.36023e-06 0 0.000940181 0.000191735 0 0.125116 0.0227494 0 0.0590216 -0.00218411 0 5.65103 -0.000612434 0 3.65378 -0.123198 0 
        </DataArray>
        <DataArray type="Float32" Name="gradRho" format="ascii">
0.00369254 4.9631e-05 0.00192028 0.0910713 64.6687 64.7154 1.90331 1.82051 62.9418 67.0568 49.8624 50.3621 31.3816 30.3919 0.000126734 0.000173328 39.902 39.4782 5.91172 8.58453 7.95334 7.9119 1.06887e-05 7.23191e-07 52.2408 52.5753 0 6.62786e-09 5.77628e-09 2.24589e-07 2.03704e-07 0 0.341807 0.889401 0 0 0 0 0 0.927753 0.927757 3.21045e-12 3.78399e-08 1.51693e-05 0.00183682 0.06629 0.0638321 0.00168956 1.28119e-05 3.22727e-08 3.21045e-12 0 0.829632 0 0 2.86968e-09 8.04356e-09 4.17307e-06 1.52696e-06 0.000502795 0.000881309 0.0804644 0.0587651 2.11646 1.85287 
        </DataArray>
      </CellData>
    </Piece>
  </UnstructuredGrid>
</VTKFile>
