<?xml version="1.0"?>
<VTKFile type="UnstructuredGrid" version="0.1" byte_order="LittleEndian">
  <UnstructuredGrid>
    <Piece NumberOfPoints="50" NumberOfCells="65">
      <Points>
        <DataArray type="Float32" NumberOfComponents="3" format="ascii">
          0 5 0 0 -5 0 15 0.2 0 15 -0.2 0 35 0.2 0 35 -0.2 0 2.14286 4.31429 0 4.28571 3.62857 0 6.42857 2.94286 0 8.57143 2.25714 0 10.7143 1.57143 0 12.8571 0.885714 0 17.8571 0.2 0 20.7143 0.2 0 23.5714 0.2 0 26.4286 0.2 0 29.2857 0.2 0 32.1429 0.2 0 32.1429 -0.2 0 29.2857 -0.2 0 26.4286 -0.2 0 23.5714 -0.2 0 20.7143 -0.2 0 17.8571 -0.2 0 12.8571 -0.885714 0 10.7143 -1.57143 0 8.57143 -2.25714 0 6.42857 -2.94286 0 4.28571 -3.62857 0 2.14286 -4.31429 0 0 -2.5 0 0 -6.16307e-12 0 0 2.5 0 3.95974 -5.7158e-13 0 13.9286 -3.66374e-15 0 6.61813 2.81487e-12 0 2.86365 2.0434 0 2.86365 -2.0434 0 9.43036 1.987e-12 0 11.3926 2.79508e-14 0 4.83116 1.72297 0 4.83116 -1.72297 0 1.90629 -3.21031e-12 0 33.5714 0 0 16.4286 -1.80625e-18 0 25 6.93889e-18 0 19.2857 -6.93889e-18 0 30.7143 0 0 22.1429 0 0 27.8571 0 0 
        </DataArray>
      </Points>
      <Cells>
        <DataArray type="Int32" Name="connectivity" format="ascii">
          8 9 35 26 27 35 8 35 40 27 41 35 30 42 37 32 36 42 33 40 35 33 35 41 29 30 37 6 36 32 30 31 42 31 32 42 0 6 32 30 29 1 26 35 38 9 38 35 6 7 36 28 29 37 7 40 36 33 41 37 33 36 40 28 37 41 9 10 38 25 26 38 33 42 36 33 37 42 11 34 24 24 25 39 10 11 39 25 38 39 10 39 38 11 24 39 27 28 41 7 8 40 2 34 11 3 24 34 2 3 34 2 44 12 3 23 44 4 17 43 5 43 18 12 46 13 13 48 14 14 45 15 15 49 16 16 47 17 18 47 19 19 49 20 20 45 21 21 48 22 22 46 23 2 3 44 4 43 5 12 44 23 12 23 46 13 46 22 13 22 48 14 21 45 14 48 21 15 45 20 15 20 49 16 19 47 16 49 19 17 18 43 17 47 18 
        </DataArray>
        <DataArray type="Int32" Name="offsets" format="ascii">
          3 6 9 12 15 18 21 24 27 30 33 36 39 42 45 48 51 54 57 60 63 66 69 72 75 78 81 84 87 90 93 96 99 102 105 108 111 114 117 120 123 126 129 132 135 138 141 144 147 150 153 156 159 162 165 168 171 174 177 180 183 186 189 192 195 
        </DataArray>
        <DataArray type="UInt8" Name="types" format="ascii">
          5 5 5 5 5 5 5 5 5 5 5 5 5 5 5 5 5 5 5 5 5 5 5 5 5 5 5 5 5 5 5 5 5 5 5 5 5 5 5 5 5 5 5 5 5 5 5 5 5 5 5 5 5 5 5 5 5 5 5 5 5 5 5 5 5 
        </DataArray>
      </Cells>
      <CellData>
        <DataArray type="Float32" Name="F0_Alpha_SG_co2liq_mod.xml" format="ascii">
1.72682e-10 1.72682e-10 1.72683e-10 1.72682e-10 1.67467e-10 1.67512e-10 1.72681e-10 1.7268e-10 1.68334e-10 1.68233e-10 1.67968e-10 1.67967e-10 1.663e-10 1.66459e-10 1.72682e-10 1.72682e-10 1.71666e-10 1.71185e-10 1.72541e-10 1.72422e-10 1.72407e-10 1.72714e-10 1.72682e-10 1.72682e-10 1.71467e-10 1.71455e-10 1.72682e-10 1.72682e-10 1.72682e-10 1.72682e-10 1.72682e-10 1.72682e-10 1.72694e-10 1.72682e-10 1.72682e-10 1.72682e-10 1.72682e-10 1.72682e-10 1.72682e-10 1.72993e-10 1.72993e-10 1.72682e-10 1.72682e-10 1.72682e-10 1.72682e-10 1.727e-10 1.727e-10 1.72682e-10 1.72682e-10 1.72682e-10 1.72682e-10 1.72682e-10 1.73079e-10 1.72682e-10 1.72682e-10 1.72682e-10 1.72682e-10 1.72682e-10 1.72682e-10 1.72682e-10 1.72682e-10 1.7269e-10 1.72683e-10 1.72898e-10 1.72715e-10 
        </DataArray>
        <DataArray type="Float32" Name="F0_Density_SG_co2liq_mod.xml" format="ascii">
5897.13 5897.13 5897.09 5897.12 6255.67 6253.07 5897.22 5897.24 6194.75 6199.1 6298.2 6298.23 6396.44 6386.12 5897.13 5897.13 5959.09 5987.71 5905.98 5913.28 5914.18 5895.08 5897.13 5897.13 5969.77 5970.45 5897.13 5897.13 5897.13 5897.13 5897.13 5897.13 5896.37 5897.13 5897.13 5897.13 5897.13 5897.13 5897.13 5876.76 5876.76 5897.13 5897.13 5897.13 5897.11 5896 5895.99 5897.11 5897.13 5897.13 5897.13 5897.13 5868.13 5897.13 5897.13 5897.13 5897.13 5897.13 5897.13 5897.13 5897.12 5896.6 5897.08 5883.15 5895 
        </DataArray>
        <DataArray type="Float32" Name="F0_Temperature_SG_co2liq_mod.xml" format="ascii">
41.7807 41.7807 41.7806 41.7807 42.2947 42.2928 41.781 41.781 42.2479 42.2515 42.3229 42.3229 42.3769 42.3719 41.7807 41.7807 41.9387 41.9943 41.8076 41.8284 41.8309 41.7742 41.7807 41.7807 41.9604 41.9617 41.7807 41.7807 41.7807 41.7807 41.7807 41.7807 41.7783 41.7807 41.7807 41.7807 41.7807 41.7807 41.7807 41.7107 41.7107 41.7807 41.7807 41.7807 41.7806 41.7771 41.7771 41.7806 41.7807 41.7807 41.7807 41.7807 41.6766 41.7807 41.7807 41.7807 41.7807 41.7807 41.7807 41.7807 41.7807 41.779 41.7805 41.734 41.7739 
        </DataArray>
        <DataArray type="Float32" Name="F0_Mass fraction_SG_co2liq_mod.xml" format="ascii">
9.59448e-09 9.59436e-09 9.59598e-09 9.59471e-09 3.68452e-09 3.69663e-09 9.59067e-09 9.58963e-09 4.10265e-09 4.0904e-09 3.06929e-09 3.06919e-09 2.7758e-09 2.80757e-09 9.5944e-09 9.59441e-09 7.6443e-09 7.01703e-09 9.24206e-09 8.97846e-09 8.94658e-09 9.68195e-09 9.5944e-09 9.5944e-09 7.43169e-09 7.41666e-09 9.5944e-09 9.5944e-09 9.5944e-09 9.5944e-09 9.5944e-09 9.5944e-09 9.62649e-09 9.59443e-09 9.5944e-09 9.5944e-09 9.5944e-09 9.5944e-09 9.5944e-09 1.05706e-08 1.05706e-08 9.5944e-09 9.5944e-09 9.5944e-09 9.59516e-09 9.64222e-09 9.64278e-09 9.5952e-09 9.59441e-09 9.5944e-09 9.5944e-09 9.5944e-09 1.12318e-08 9.5944e-09 9.5944e-09 9.5944e-09 9.5944e-09 9.5944e-09 9.5944e-09 9.59442e-09 9.59464e-09 9.61682e-09 9.59642e-09 1.02357e-08 9.68535e-09 
        </DataArray>
        <DataArray type="Float32" Name="F1_Alpha_SG_co2gas_mod.xml" format="ascii">
1 1 1 1 1 1 1 1 1 1 1 1 1 1 1 1 1 1 1 1 1 1 1 1 1 1 1 1 1 1 1 1 1 1 1 1 1 1 1 1 1 1 1 1 1 1 1 1 1 1 1 1 1 1 1 1 1 1 1 1 1 1 1 1 1 
        </DataArray>
        <DataArray type="Float32" Name="F1_Density_SG_co2gas_mod.xml" format="ascii">
106.137 106.138 106.12 106.134 284.329 283.357 106.18 106.191 254.174 254.961 344.671 344.682 383.215 378.629 106.138 106.138 133.822 146.074 110.259 113.558 113.971 105.161 106.138 106.138 137.737 138.022 106.138 106.138 106.138 106.138 106.138 106.138 105.778 106.137 106.138 106.138 106.138 106.138 106.138 96.1757 96.1756 106.138 106.138 106.138 106.129 105.602 105.596 106.129 106.138 106.138 106.138 106.138 90.4261 106.138 106.138 106.138 106.138 106.138 106.138 106.138 106.135 105.886 106.115 99.3755 105.123 
        </DataArray>
        <DataArray type="Float32" Name="F1_Temperature_SG_co2gas_mod.xml" format="ascii">
466.385 466.385 466.381 466.384 422.462 422.25 466.396 466.4 428.812 430.634 370.757 370.759 379.078 378.853 466.385 466.385 472.29 473.411 467.55 468.628 468.717 466.14 466.385 466.385 475.131 475.187 466.385 466.385 466.385 466.385 466.385 466.385 466.291 466.385 466.385 466.385 466.385 466.385 466.385 463.755 463.755 466.385 466.385 466.385 466.383 466.244 466.242 466.383 466.385 466.385 466.385 466.385 469.216 466.385 466.385 466.385 466.385 466.385 466.385 466.385 466.385 466.319 466.379 464.58 466.127 
        </DataArray>
        <DataArray type="Float32" Name="F1_Mass fraction_SG_co2gas_mod.xml" format="ascii">
1 1 1 1 1 1 1 1 1 1 1 1 1 1 1 1 1 1 1 1 1 1 1 1 1 1 1 1 1 1 1 1 1 1 1 1 1 1 1 1 1 1 1 1 1 1 1 1 1 1 1 1 1 1 1 1 1 1 1 1 1 1 1 1 1 
        </DataArray>
        <DataArray type="Float32" Name="Density_Mixture" format="ascii">
106.137 106.138 106.12 106.134 284.329 283.357 106.18 106.191 254.174 254.961 344.671 344.682 383.215 378.629 106.138 106.138 133.822 146.074 110.259 113.558 113.971 105.161 106.138 106.138 137.737 138.022 106.138 106.138 106.138 106.138 106.138 106.138 105.778 106.137 106.138 106.138 106.138 106.138 106.138 96.1757 96.1756 106.138 106.138 106.138 106.129 105.602 105.596 106.129 106.138 106.138 106.138 106.138 90.4261 106.138 106.138 106.138 106.138 106.138 106.138 106.138 106.135 105.886 106.115 99.3755 105.123 
        </DataArray>
        <DataArray type="Float32" Name="Pressure_Mixture" format="ascii">
6.27179e+06 6.27189e+06 6.27059e+06 6.27161e+06 1.64831e+07 1.6415e+07 6.27487e+06 6.2757e+06 1.48743e+07 1.49903e+07 1.75923e+07 1.7593e+07 2.01198e+07 1.98561e+07 6.27186e+06 6.27185e+06 8.25311e+06 9.11353e+06 6.56838e+06 6.80913e+06 6.83854e+06 6.20225e+06 6.27186e+06 6.27186e+06 8.57706e+06 8.59779e+06 6.27186e+06 6.27186e+06 6.27186e+06 6.27186e+06 6.27186e+06 6.27186e+06 6.24612e+06 6.27184e+06 6.27186e+06 6.27186e+06 6.27186e+06 6.27186e+06 6.27186e+06 5.56345e+06 5.56344e+06 6.27186e+06 6.27186e+06 6.27185e+06 6.27125e+06 6.23356e+06 6.23312e+06 6.27122e+06 6.27185e+06 6.27186e+06 6.27186e+06 6.27186e+06 5.24929e+06 6.27186e+06 6.27186e+06 6.27186e+06 6.27186e+06 6.27186e+06 6.27186e+06 6.27184e+06 6.27166e+06 6.25385e+06 6.27023e+06 5.78988e+06 6.19953e+06 
        </DataArray>
        <DataArray type="Float32" Name="Velocity_Mixture" NumberOfComponents="3" format="ascii">
-0.00244225 -7.87564e-06 0 0.000854156 0.000182599 0 -0.0288599 0.033449 0 -0.00517305 -0.00460083 0 251.787 -10.8588 0 252.531 12.5272 0 0.0996426 -0.0372301 0 0.122959 0.0541075 0 236.46 46.2628 0 233.124 -38.7495 0 328.803 0.532701 0 328.798 -0.535052 0 303.467 -36.8345 0 298.929 52.3056 0 6.74176e-05 6.21124e-05 0 -0.000130713 0.000100663 0 70.4043 -2.65174 0 67.3368 26.4674 0 9.79845 -3.51279 0 19.0874 -5.53565 0 18.8175 5.20798 0 -2.14338 -6.15889 0 0 0 0 0 0 0 80.3678 -14.6454 0 81.1921 15.8593 0 0 0 0 0 0 0 0 0 0 0 0 0 0 0 0 0 0 0 -0.538591 -0.148624 0 -0.195902 -0.123458 0 0 0 0 0 0 0 0 0 0 0 0 0 0 0 0 6.48867 -1.38457 0 6.4883 1.3851 0 0 0 0 0 0 0 3.20369e-06 -4.00064e-05 0 0.00346076 -0.005218 0 0.244113 -0.199224 0 0.268818 0.191011 0 0.00397442 0.00524864 0 8.15275e-06 4.40621e-05 0 0 0 0 0 0 0 0 0 0 38.3604 9.37701e-05 0 0 0 0 0 0 0 0 0 0 0 0 0 0 0 0 0 0 0 0.000645046 -1.92991e-05 0 0.00175042 0.000341809 0 0.181912 0.0310521 0 0.0921899 -0.00331008 0 6.77765 -0.00154403 0 4.55234 -0.146162 0 
        </DataArray>
        <DataArray type="Float32" Name="gradRho" format="ascii">
0.00499197 0.0010548 0.0105252 0.118789 64.5954 64.5981 3.01333 2.85102 64.2117 69.8707 41.9094 42.5902 30.2794 29.3825 0.000134412 0.000275892 44.5132 43.6264 8.09022 11.6478 10.8226 10.7876 2.16617e-05 9.0885e-06 57.2855 57.7733 0 1.8623e-08 2.43356e-08 3.47831e-07 6.26684e-07 0 0.265153 1.44471 0 0 0 0 0 0.920389 0.920367 2.24599e-10 9.0515e-08 2.69757e-05 0.00260411 0.0743666 0.0722687 0.00241245 2.3301e-05 7.69015e-08 2.24599e-10 0 0.828938 0 0 8.30239e-09 2.04602e-08 8.48284e-06 3.6027e-06 0.000909639 0.00149315 0.10784 0.0815478 2.31932 2.05746 
        </DataArray>
      </CellData>
    </Piece>
  </UnstructuredGrid>
</VTKFile>
