<?xml version="1.0"?>
<VTKFile type="UnstructuredGrid" version="0.1" byte_order="LittleEndian">
  <UnstructuredGrid>
    <Piece NumberOfPoints="50" NumberOfCells="65">
      <Points>
        <DataArray type="Float32" NumberOfComponents="3" format="ascii">
          0 5 0 0 -5 0 15 0.2 0 15 -0.2 0 35 0.2 0 35 -0.2 0 2.14286 4.31429 0 4.28571 3.62857 0 6.42857 2.94286 0 8.57143 2.25714 0 10.7143 1.57143 0 12.8571 0.885714 0 17.8571 0.2 0 20.7143 0.2 0 23.5714 0.2 0 26.4286 0.2 0 29.2857 0.2 0 32.1429 0.2 0 32.1429 -0.2 0 29.2857 -0.2 0 26.4286 -0.2 0 23.5714 -0.2 0 20.7143 -0.2 0 17.8571 -0.2 0 12.8571 -0.885714 0 10.7143 -1.57143 0 8.57143 -2.25714 0 6.42857 -2.94286 0 4.28571 -3.62857 0 2.14286 -4.31429 0 0 -2.5 0 0 -6.16307e-12 0 0 2.5 0 3.95974 -5.7158e-13 0 13.9286 -3.66374e-15 0 6.61813 2.81487e-12 0 2.86365 2.0434 0 2.86365 -2.0434 0 9.43036 1.987e-12 0 11.3926 2.79508e-14 0 4.83116 1.72297 0 4.83116 -1.72297 0 1.90629 -3.21031e-12 0 33.5714 0 0 16.4286 -1.80625e-18 0 25 6.93889e-18 0 19.2857 -6.93889e-18 0 30.7143 0 0 22.1429 0 0 27.8571 0 0 
        </DataArray>
      </Points>
      <Cells>
        <DataArray type="Int32" Name="connectivity" format="ascii">
          8 9 35 26 27 35 8 35 40 27 41 35 30 42 37 32 36 42 33 40 35 33 35 41 29 30 37 6 36 32 30 31 42 31 32 42 0 6 32 30 29 1 26 35 38 9 38 35 6 7 36 28 29 37 7 40 36 33 41 37 33 36 40 28 37 41 9 10 38 25 26 38 33 42 36 33 37 42 11 34 24 24 25 39 10 11 39 25 38 39 10 39 38 11 24 39 27 28 41 7 8 40 2 34 11 3 24 34 2 3 34 2 44 12 3 23 44 4 17 43 5 43 18 12 46 13 13 48 14 14 45 15 15 49 16 16 47 17 18 47 19 19 49 20 20 45 21 21 48 22 22 46 23 2 3 44 4 43 5 12 44 23 12 23 46 13 46 22 13 22 48 14 21 45 14 48 21 15 45 20 15 20 49 16 19 47 16 49 19 17 18 43 17 47 18 
        </DataArray>
        <DataArray type="Int32" Name="offsets" format="ascii">
          3 6 9 12 15 18 21 24 27 30 33 36 39 42 45 48 51 54 57 60 63 66 69 72 75 78 81 84 87 90 93 96 99 102 105 108 111 114 117 120 123 126 129 132 135 138 141 144 147 150 153 156 159 162 165 168 171 174 177 180 183 186 189 192 195 
        </DataArray>
        <DataArray type="UInt8" Name="types" format="ascii">
          5 5 5 5 5 5 5 5 5 5 5 5 5 5 5 5 5 5 5 5 5 5 5 5 5 5 5 5 5 5 5 5 5 5 5 5 5 5 5 5 5 5 5 5 5 5 5 5 5 5 5 5 5 5 5 5 5 5 5 5 5 5 5 5 5 
        </DataArray>
      </Cells>
      <CellData>
        <DataArray type="Float32" Name="F0_Alpha_SG_co2liq_mod.xml" format="ascii">
1.72682e-10 1.72682e-10 1.72682e-10 1.72682e-10 1.69027e-10 1.69042e-10 1.72682e-10 1.72682e-10 1.69792e-10 1.69813e-10 1.68304e-10 1.68303e-10 1.67296e-10 1.67383e-10 1.72682e-10 1.72682e-10 1.72345e-10 1.72195e-10 1.72659e-10 1.72634e-10 1.72633e-10 1.72715e-10 1.72682e-10 1.72682e-10 1.7229e-10 1.72283e-10 1.72682e-10 1.72682e-10 1.72682e-10 1.72682e-10 1.72682e-10 1.72682e-10 1.72687e-10 1.72682e-10 1.72682e-10 1.72682e-10 1.72682e-10 1.72682e-10 1.72682e-10 1.72919e-10 1.72919e-10 1.72682e-10 1.72682e-10 1.72682e-10 1.72682e-10 1.72689e-10 1.72689e-10 1.72682e-10 1.72682e-10 1.72682e-10 1.72682e-10 1.72682e-10 1.73021e-10 1.72682e-10 1.72682e-10 1.72682e-10 1.72682e-10 1.72682e-10 1.72682e-10 1.72682e-10 1.72682e-10 1.72685e-10 1.72682e-10 1.72825e-10 1.72698e-10 
        </DataArray>
        <DataArray type="Float32" Name="F0_Density_SG_co2liq_mod.xml" format="ascii">
5897.13 5897.13 5897.12 5897.13 6142.68 6141.83 5897.12 5897.13 6091.7 6089.61 6261.27 6261.33 6316.77 6311.05 5897.13 5897.13 5917.75 5926.96 5898.6 5900.19 5900.25 5895.05 5897.13 5897.13 5920.72 5921.15 5897.13 5897.13 5897.13 5897.13 5897.13 5897.13 5896.84 5897.1 5897.13 5897.13 5897.13 5897.13 5897.13 5881.74 5881.74 5897.13 5897.13 5897.13 5897.13 5896.68 5896.67 5897.13 5897.13 5897.13 5897.13 5897.13 5872.57 5897.13 5897.13 5897.13 5897.13 5897.13 5897.13 5897.13 5897.13 5896.97 5897.12 5887.89 5896.08 
        </DataArray>
        <DataArray type="Float32" Name="F0_Temperature_SG_co2liq_mod.xml" format="ascii">
41.7807 41.7807 41.7806 41.7807 42.2004 42.1996 41.7807 41.7807 42.1455 42.143 42.2986 42.2986 42.3342 42.3308 41.7807 41.7807 41.8407 41.8647 41.7853 41.7902 41.7904 41.7741 41.7807 41.7807 41.8486 41.8497 41.7807 41.7807 41.7807 41.7807 41.7807 41.7807 41.7798 41.7806 41.7807 41.7807 41.7807 41.7807 41.7807 41.729 41.729 41.7807 41.7807 41.7807 41.7807 41.7793 41.7792 41.7807 41.7807 41.7807 41.7807 41.7807 41.6945 41.7807 41.7807 41.7807 41.7807 41.7807 41.7807 41.7807 41.7807 41.7802 41.7806 41.7505 41.7774 
        </DataArray>
        <DataArray type="Float32" Name="F0_Mass fraction_SG_co2liq_mod.xml" format="ascii">
9.59441e-09 9.59438e-09 9.59495e-09 9.5942e-09 4.58489e-09 4.59118e-09 9.59462e-09 9.59454e-09 5.11649e-09 5.1503e-09 3.2967e-09 3.29645e-09 3.11417e-09 3.13728e-09 9.5944e-09 9.5944e-09 8.83453e-09 8.53391e-09 9.53321e-09 9.46877e-09 9.46615e-09 9.68327e-09 9.5944e-09 9.5944e-09 8.75205e-09 8.73812e-09 9.5944e-09 9.5944e-09 9.5944e-09 9.5944e-09 9.5944e-09 9.5944e-09 9.60666e-09 9.59578e-09 9.5944e-09 9.5944e-09 9.5944e-09 9.5944e-09 9.5944e-09 1.03075e-08 1.03075e-08 9.5944e-09 9.5944e-09 9.5944e-09 9.59453e-09 9.61333e-09 9.614e-09 9.59455e-09 9.5944e-09 9.5944e-09 9.5944e-09 9.5944e-09 1.09341e-08 9.5944e-09 9.5944e-09 9.5944e-09 9.5944e-09 9.5944e-09 9.5944e-09 9.5944e-09 9.59443e-09 9.60126e-09 9.59486e-09 1.00057e-08 9.63886e-09 
        </DataArray>
        <DataArray type="Float32" Name="F1_Alpha_SG_co2gas_mod.xml" format="ascii">
1 1 1 1 1 1 1 1 1 1 1 1 1 1 1 1 1 1 1 1 1 1 1 1 1 1 1 1 1 1 1 1 1 1 1 1 1 1 1 1 1 1 1 1 1 1 1 1 1 1 1 1 1 1 1 1 1 1 1 1 1 1 1 1 1 
        </DataArray>
        <DataArray type="Float32" Name="F1_Density_SG_co2gas_mod.xml" format="ascii">
106.138 106.138 106.132 106.14 226.457 226.135 106.135 106.136 202.155 200.784 319.653 319.678 339.343 336.712 106.138 106.138 115.444 119.593 106.831 107.572 107.602 105.146 106.138 106.138 116.553 116.743 106.138 106.138 106.138 106.138 106.138 106.138 106 106.122 106.138 106.138 106.138 106.138 106.138 98.6718 98.6718 106.138 106.138 106.138 106.136 105.925 105.917 106.136 106.138 106.138 106.138 106.138 92.9277 106.138 106.138 106.138 106.138 106.138 106.138 106.138 106.137 106.061 106.133 101.7 105.639 
        </DataArray>
        <DataArray type="Float32" Name="F1_Temperature_SG_co2gas_mod.xml" format="ascii">
466.385 466.385 466.384 466.386 438.605 438.523 466.385 466.385 443.603 444.637 378.95 378.953 386.385 386.362 466.385 466.385 469.693 470.524 466.577 466.803 466.809 466.131 466.385 466.385 470.916 470.981 466.385 466.385 466.385 466.385 466.385 466.385 466.349 466.381 466.385 466.385 466.385 466.385 466.385 464.427 464.427 466.385 466.385 466.385 466.385 466.329 466.327 466.385 466.385 466.385 466.385 466.385 468.711 466.385 466.385 466.385 466.385 466.385 466.385 466.385 466.385 466.365 466.384 465.208 466.257 
        </DataArray>
        <DataArray type="Float32" Name="F1_Mass fraction_SG_co2gas_mod.xml" format="ascii">
1 1 1 1 1 1 1 1 1 1 1 1 1 1 1 1 1 1 1 1 1 1 1 1 1 1 1 1 1 1 1 1 1 1 1 1 1 1 1 1 1 1 1 1 1 1 1 1 1 1 1 1 1 1 1 1 1 1 1 1 1 1 1 1 1 
        </DataArray>
        <DataArray type="Float32" Name="Density_Mixture" format="ascii">
106.138 106.138 106.132 106.14 226.457 226.135 106.135 106.136 202.155 200.784 319.653 319.678 339.343 336.712 106.138 106.138 115.444 119.593 106.831 107.572 107.602 105.146 106.138 106.138 116.553 116.743 106.138 106.138 106.138 106.138 106.138 106.138 106 106.122 106.138 106.138 106.138 106.138 106.138 98.6718 98.6718 106.138 106.138 106.138 106.136 105.925 105.918 106.136 106.138 106.138 106.138 106.138 92.9277 106.138 106.138 106.138 106.138 106.138 106.138 106.138 106.137 106.061 106.133 101.7 105.639 
        </DataArray>
        <DataArray type="Float32" Name="Pressure_Mixture" format="ascii">
6.27185e+06 6.27187e+06 6.27142e+06 6.27202e+06 1.34764e+07 1.34533e+07 6.27168e+06 6.27174e+06 1.20813e+07 1.20233e+07 1.66297e+07 1.66313e+07 1.80735e+07 1.79254e+07 6.27186e+06 6.27186e+06 6.95471e+06 7.25082e+06 6.3216e+06 6.37505e+06 6.37718e+06 6.20113e+06 6.27186e+06 6.27186e+06 7.05063e+06 7.06464e+06 6.27186e+06 6.27186e+06 6.27186e+06 6.27186e+06 6.27186e+06 6.27186e+06 6.262e+06 6.27074e+06 6.27186e+06 6.27186e+06 6.27186e+06 6.27186e+06 6.27186e+06 5.74041e+06 5.74042e+06 6.27186e+06 6.27186e+06 6.27186e+06 6.27175e+06 6.25665e+06 6.25612e+06 6.27174e+06 6.27186e+06 6.27186e+06 6.27186e+06 6.27186e+06 5.41223e+06 6.27186e+06 6.27186e+06 6.27186e+06 6.27186e+06 6.27186e+06 6.27186e+06 6.27186e+06 6.27183e+06 6.26634e+06 6.27149e+06 5.95524e+06 6.23629e+06 
        </DataArray>
        <DataArray type="Float32" Name="Velocity_Mixture" NumberOfComponents="3" format="ascii">
-0.000278852 -2.28198e-06 0 0.000449059 3.63508e-05 0 -0.0107139 0.0120026 0 0.0034372 0.00624225 0 205.453 -17.2071 0 205.879 18.332 0 -0.00460727 0.00334909 0 -0.00380572 -0.00181486 0 182.949 43.5439 0 180.789 -36.5797 0 315.926 0.892301 0 315.91 -0.902414 0 294.611 -30.9201 0 288.57 49.7688 0 0 0 0 0 0 0 25.3962 0.685932 0 23.8524 8.58056 0 1.51656 -0.849033 0 3.52816 -1.43725 0 3.45468 1.4463 0 -1.94494 -2.39216 0 0 0 0 0 0 0 29.3426 -6.90599 0 29.8307 7.50827 0 0 0 0 0 0 0 0 0 0 0 0 0 0 0 0 0 0 0 -0.229233 -0.00929451 0 -0.0784086 -0.0266535 0 0 0 0 0 0 0 0 0 0 0 0 0 0 0 0 4.40555 -1.45155 0 4.40555 1.45156 0 0 0 0 0 0 0 0 0 0 0.000551923 -0.00121775 0 0.0883619 -0.111778 0 0.100772 0.108859 0 0.000666717 0.00128543 0 0 0 0 0 0 0 0 0 0 0 0 0 30.9907 6.46997e-06 0 0 0 0 0 0 0 0 0 0 0 0 0 0 0 0 0 0 0 4.65843e-05 0 0 0.000198995 4.19883e-05 0 0.0498179 0.0100952 0 0.0194874 -0.000759835 0 3.64368 -0.000125761 0 2.11257 -0.078736 0 
        </DataArray>
        <DataArray type="Float32" Name="gradRho" format="ascii">
0.0017659 0.000620507 0.00435531 0.0418557 62.3662 62.4925 0.566009 0.552835 57.6906 59.4904 64.7284 64.9647 32.7125 31.7675 5.97049e-05 3.05948e-05 29.8319 30.0273 2.7599 3.88716 3.56582 3.67728 9.68951e-07 1.67862e-06 40.3493 40.4897 0 6.54693e-10 6.88719e-11 6.11451e-08 5.5267e-09 0 0.315721 0.247168 0 0 0 0 0 0.942813 0.942824 0 4.76237e-09 3.25593e-06 0.000748735 0.0491168 0.0461444 0.000680046 2.85779e-06 4.04163e-09 0 0 0.828151 0 0 0 8.14565e-10 6.21658e-07 2.37176e-07 0.00011393 0.000242835 0.0387898 0.0255598 1.66998 1.40605 
        </DataArray>
      </CellData>
    </Piece>
  </UnstructuredGrid>
</VTKFile>
