<?xml version="1.0"?>
<VTKFile type="UnstructuredGrid" version="0.1" byte_order="LittleEndian">
  <UnstructuredGrid>
    <Piece NumberOfPoints="50" NumberOfCells="65">
      <Points>
        <DataArray type="Float32" NumberOfComponents="3" format="ascii">
          0 5 0 0 -5 0 15 0.2 0 15 -0.2 0 35 0.2 0 35 -0.2 0 2.14286 4.31429 0 4.28571 3.62857 0 6.42857 2.94286 0 8.57143 2.25714 0 10.7143 1.57143 0 12.8571 0.885714 0 17.8571 0.2 0 20.7143 0.2 0 23.5714 0.2 0 26.4286 0.2 0 29.2857 0.2 0 32.1429 0.2 0 32.1429 -0.2 0 29.2857 -0.2 0 26.4286 -0.2 0 23.5714 -0.2 0 20.7143 -0.2 0 17.8571 -0.2 0 12.8571 -0.885714 0 10.7143 -1.57143 0 8.57143 -2.25714 0 6.42857 -2.94286 0 4.28571 -3.62857 0 2.14286 -4.31429 0 0 -2.5 0 0 -6.16307e-12 0 0 2.5 0 3.95974 -5.7158e-13 0 13.9286 -3.66374e-15 0 6.61813 2.81487e-12 0 2.86365 2.0434 0 2.86365 -2.0434 0 9.43036 1.987e-12 0 11.3926 2.79508e-14 0 4.83116 1.72297 0 4.83116 -1.72297 0 1.90629 -3.21031e-12 0 33.5714 0 0 16.4286 -1.80625e-18 0 25 6.93889e-18 0 19.2857 -6.93889e-18 0 30.7143 0 0 22.1429 0 0 27.8571 0 0 
        </DataArray>
      </Points>
      <Cells>
        <DataArray type="Int32" Name="connectivity" format="ascii">
          8 9 35 26 27 35 8 35 40 27 41 35 30 42 37 32 36 42 33 40 35 33 35 41 29 30 37 6 36 32 30 31 42 31 32 42 0 6 32 30 29 1 26 35 38 9 38 35 6 7 36 28 29 37 7 40 36 33 41 37 33 36 40 28 37 41 9 10 38 25 26 38 33 42 36 33 37 42 11 34 24 24 25 39 10 11 39 25 38 39 10 39 38 11 24 39 27 28 41 7 8 40 2 34 11 3 24 34 2 3 34 2 44 12 3 23 44 4 17 43 5 43 18 12 46 13 13 48 14 14 45 15 15 49 16 16 47 17 18 47 19 19 49 20 20 45 21 21 48 22 22 46 23 2 3 44 4 43 5 12 44 23 12 23 46 13 46 22 13 22 48 14 21 45 14 48 21 15 45 20 15 20 49 16 19 47 16 49 19 17 18 43 17 47 18 
        </DataArray>
        <DataArray type="Int32" Name="offsets" format="ascii">
          3 6 9 12 15 18 21 24 27 30 33 36 39 42 45 48 51 54 57 60 63 66 69 72 75 78 81 84 87 90 93 96 99 102 105 108 111 114 117 120 123 126 129 132 135 138 141 144 147 150 153 156 159 162 165 168 171 174 177 180 183 186 189 192 195 
        </DataArray>
        <DataArray type="UInt8" Name="types" format="ascii">
          5 5 5 5 5 5 5 5 5 5 5 5 5 5 5 5 5 5 5 5 5 5 5 5 5 5 5 5 5 5 5 5 5 5 5 5 5 5 5 5 5 5 5 5 5 5 5 5 5 5 5 5 5 5 5 5 5 5 5 5 5 5 5 5 5 
        </DataArray>
      </Cells>
      <CellData>
        <DataArray type="Float32" Name="F0_Alpha_SG_co2liq_mod.xml" format="ascii">
1.72682e-10 1.72682e-10 1.72679e-10 1.72682e-10 1.66167e-10 1.66283e-10 1.72589e-10 1.72588e-10 1.66493e-10 1.66163e-10 1.67768e-10 1.67768e-10 1.65079e-10 1.65327e-10 1.72682e-10 1.72682e-10 1.6949e-10 1.68405e-10 1.71843e-10 1.71332e-10 1.71251e-10 1.72206e-10 1.72682e-10 1.72682e-10 1.69129e-10 1.69116e-10 1.72682e-10 1.72682e-10 1.72682e-10 1.72682e-10 1.72682e-10 1.72682e-10 1.72689e-10 1.72649e-10 1.72682e-10 1.72682e-10 1.72682e-10 1.72682e-10 1.72682e-10 1.73093e-10 1.73093e-10 1.72682e-10 1.72682e-10 1.72682e-10 1.72684e-10 1.72727e-10 1.72727e-10 1.72684e-10 1.72682e-10 1.72682e-10 1.72682e-10 1.72682e-10 1.7316e-10 1.72682e-10 1.72682e-10 1.72682e-10 1.72682e-10 1.72682e-10 1.72682e-10 1.72682e-10 1.72683e-10 1.72708e-10 1.72685e-10 1.72998e-10 1.72752e-10 
        </DataArray>
        <DataArray type="Float32" Name="F0_Density_SG_co2liq_mod.xml" format="ascii">
5897.13 5897.13 5897.29 5897.13 6372.52 6365.66 5902.95 5903.06 6335.21 6353.1 6326.92 6326.95 6493.9 6477.75 5897.13 5897.13 6090.89 6154.86 5948.04 5977.57 5982.25 5925.55 5897.13 5897.13 6108.36 6109.1 5897.13 5897.13 5897.13 5897.13 5897.13 5897.13 5896.65 5899.18 5897.13 5897.13 5897.13 5897.13 5897.13 5869.88 5869.89 5897.13 5897.13 5897.13 5897.02 5894.25 5894.24 5897.02 5897.13 5897.13 5897.13 5897.13 5861.93 5897.13 5897.13 5897.13 5897.13 5897.13 5897.13 5897.13 5897.08 5895.44 5896.91 5876.4 5892.64 
        </DataArray>
        <DataArray type="Float32" Name="F0_Temperature_SG_co2liq_mod.xml" format="ascii">
41.7807 41.7807 41.7812 41.7807 42.365 42.3615 41.7985 41.7989 42.3449 42.3548 42.3401 42.3402 42.4187 42.4124 41.7807 41.7807 42.1445 42.2122 41.9148 41.9755 41.9843 41.8611 41.7807 41.7807 42.1645 42.1653 41.7807 41.7807 41.7807 41.7807 41.7807 41.7807 41.7792 41.7871 41.7807 41.7807 41.7807 41.7807 41.7807 41.6838 41.6838 41.7807 41.7807 41.7807 41.7803 41.7715 41.7715 41.7803 41.7807 41.7807 41.7807 41.7807 41.6502 41.7807 41.7807 41.7807 41.7807 41.7807 41.7807 41.7807 41.7805 41.7753 41.78 41.7093 41.7663 
        </DataArray>
        <DataArray type="Float32" Name="F0_Mass fraction_SG_co2liq_mod.xml" format="ascii">
9.5942e-09 9.59439e-09 9.58761e-09 9.59439e-09 2.98714e-09 3.00867e-09 9.35981e-09 9.3554e-09 3.20648e-09 3.15205e-09 2.89758e-09 2.8975e-09 2.45757e-09 2.49555e-09 9.5944e-09 9.59442e-09 5.40916e-09 4.78097e-09 7.93731e-09 7.26596e-09 7.17011e-09 8.60778e-09 9.5944e-09 9.5944e-09 5.27827e-09 5.27149e-09 9.5944e-09 9.5944e-09 9.5944e-09 9.5944e-09 9.5944e-09 9.5944e-09 9.61459e-09 9.50957e-09 9.5944e-09 9.5944e-09 9.5944e-09 9.5944e-09 9.5944e-09 1.09666e-08 1.09665e-08 9.5944e-09 9.5944e-09 9.59447e-09 9.59885e-09 9.71784e-09 9.71808e-09 9.59894e-09 9.59447e-09 9.5944e-09 9.5944e-09 9.5944e-09 1.16747e-08 9.5944e-09 9.5944e-09 9.5944e-09 9.5944e-09 9.59442e-09 9.5944e-09 9.59458e-09 9.59637e-09 9.66629e-09 9.60349e-09 1.05895e-08 9.789e-09 
        </DataArray>
        <DataArray type="Float32" Name="F1_Alpha_SG_co2gas_mod.xml" format="ascii">
1 1 1 1 1 1 1 1 1 1 1 1 1 1 1 1 1 1 1 1 1 1 1 1 1 1 1 1 1 1 1 1 1 1 1 1 1 1 1 1 1 1 1 1 1 1 1 1 1 1 1 1 1 1 1 1 1 1 1 1 1 1 1 1 1 
        </DataArray>
        <DataArray type="Float32" Name="F1_Density_SG_co2gas_mod.xml" format="ascii">
106.14 106.138 106.214 106.138 354.488 351.817 108.847 108.899 328.949 334.909 366.325 366.337 436.206 429.143 106.138 106.137 190.852 216.799 128.775 140.952 142.88 118.546 106.138 106.138 195.728 195.987 106.138 106.138 106.138 106.138 106.138 106.138 105.911 107.102 106.138 106.138 106.138 106.138 106.138 92.6481 92.6489 106.138 106.138 106.137 106.088 104.766 104.763 106.087 106.137 106.138 106.138 106.138 86.9447 106.138 106.138 106.138 106.138 106.137 106.138 106.136 106.116 105.334 106.036 96.0015 103.991 
        </DataArray>
        <DataArray type="Float32" Name="F1_Temperature_SG_co2gas_mod.xml" format="ascii">
466.386 466.385 466.406 466.385 397.866 397.431 467.205 467.218 408.601 410.838 362.877 362.878 372.182 371.748 466.385 466.385 469.061 468.644 472.554 475.801 476.143 472.054 466.385 466.385 474.392 474.484 466.385 466.385 466.385 466.385 466.385 466.385 466.326 466.668 466.385 466.385 466.385 466.385 466.385 462.788 462.788 466.385 466.385 466.385 466.372 466.023 466.023 466.372 466.385 466.385 466.385 466.385 469.559 466.385 466.385 466.385 466.385 466.385 466.385 466.385 466.379 466.173 466.358 463.654 465.848 
        </DataArray>
        <DataArray type="Float32" Name="F1_Mass fraction_SG_co2gas_mod.xml" format="ascii">
1 1 1 1 1 1 1 1 1 1 1 1 1 1 1 1 1 1 1 1 1 1 1 1 1 1 1 1 1 1 1 1 1 1 1 1 1 1 1 1 1 1 1 1 1 1 1 1 1 1 1 1 1 1 1 1 1 1 1 1 1 1 1 1 1 
        </DataArray>
        <DataArray type="Float32" Name="Density_Mixture" format="ascii">
106.14 106.138 106.214 106.138 354.488 351.817 108.847 108.899 328.949 334.909 366.325 366.337 436.206 429.143 106.138 106.137 190.852 216.799 128.775 140.952 142.88 118.546 106.138 106.138 195.728 195.987 106.138 106.138 106.138 106.138 106.138 106.138 105.911 107.102 106.138 106.138 106.138 106.138 106.138 92.6481 92.6489 106.138 106.138 106.137 106.088 104.766 104.763 106.087 106.137 106.138 106.138 106.138 86.9447 106.138 106.138 106.138 106.138 106.137 106.138 106.136 106.116 105.334 106.036 96.0015 103.991 
        </DataArray>
        <DataArray type="Float32" Name="Pressure_Mixture" format="ascii">
6.27202e+06 6.27186e+06 6.27733e+06 6.27187e+06 1.95082e+07 1.93324e+07 6.46746e+06 6.47119e+06 1.85495e+07 1.901e+07 1.83358e+07 1.83365e+07 2.25895e+07 2.21825e+07 6.27186e+06 6.27184e+06 1.20588e+07 1.38056e+07 7.91338e+06 8.81159e+06 8.95136e+06 7.2058e+06 6.27186e+06 6.27186e+06 1.25404e+07 1.25608e+07 6.27186e+06 6.27186e+06 6.27186e+06 6.27186e+06 6.27186e+06 6.27186e+06 6.25565e+06 6.34124e+06 6.27186e+06 6.27186e+06 6.27186e+06 6.27186e+06 6.27186e+06 5.31393e+06 5.31399e+06 6.27186e+06 6.27186e+06 6.2718e+06 6.26827e+06 6.17384e+06 6.17365e+06 6.2682e+06 6.2718e+06 6.27186e+06 6.27186e+06 6.27186e+06 5.01739e+06 6.27186e+06 6.27186e+06 6.27186e+06 6.27186e+06 6.27184e+06 6.27186e+06 6.27171e+06 6.27027e+06 6.21444e+06 6.26455e+06 5.55035e+06 6.11897e+06 
        </DataArray>
        <DataArray type="Float32" Name="Velocity_Mixture" NumberOfComponents="3" format="ascii">
0.00514847 0.000495464 0 0.000148954 0.000332833 0 0.156993 0.140646 0 0.0366871 -0.269038 0 290.746 -1.88174 0 291.994 3.839 0 6.76791 -1.72695 0 6.94745 1.70799 0 283.027 45.1408 0 280.186 -38.966 0 337.92 0.230678 0 337.915 -0.233675 0 305.855 -41.1417 0 303.955 50.7171 0 0.000187344 0.000243511 0 -0.000663062 0.000510528 0 165.747 -18.9828 0 161.196 53.8341 0 54.3843 -9.51483 0 85.4098 -14.0268 0 84.137 11.8026 0 24.2833 0.0544811 0 -3.06847e-05 -1.35436e-05 0 2.04311e-05 0 0 177.755 -23.2719 0 179.056 25.4032 0 0 0 0 0 0 0 0 0 0 0 0 0 0 0 0 0 0 0 -0.31126 -0.314894 0 2.10712 0.209297 0 0 0 0 0 0 0 0 0 0 0 0 0 0 0 0 10.0221 -1.25281 0 10.022 1.25392 0 0 0 0 0 0 0 0.00030082 -0.00044968 0 0.0226203 -0.0209718 0 0.701294 -0.33912 0 0.748481 0.324053 0 0.0248859 0.020459 0 0.000347738 0.000453162 0 0 0 0 0 0 0 0 0 0 47.4601 0.00114317 0 0 0 0 0 0 0 0 0 0 0 0 0 0.000154283 2.15227e-05 0 5.16665e-05 0 0 0.00809895 -0.00028318 0 0.0160508 0.00249359 0 0.701328 0.0830777 0 0.446642 -0.013693 0 13.2505 -0.00249902 0 9.86916 -0.257423 0 
        </DataArray>
        <DataArray type="Float32" Name="gradRho" format="ascii">
0.0218145 1.19281e-05 0.650987 0.815522 54.9658 55.0348 13.5849 12.8512 60.8402 73.1633 8.22237 10.0834 23.9151 23.655 0.000112591 0.000578948 59.6496 56.7123 25.1218 30.9987 29.7328 31.0331 8.99355e-05 1.15203e-05 70.0345 71.5754 4.94551e-10 5.23461e-07 1.1145e-06 4.38322e-06 3.06588e-06 9.53212e-08 4.39688 7.68815 0 0 0 0 0 0.890106 0.890404 1.22579e-08 3.07382e-06 0.000224951 0.00848112 0.110477 0.10982 0.00811011 0.000209484 2.65859e-06 1.04317e-08 0 0.82234 8.61979e-10 2.77655e-09 4.89256e-07 8.88774e-07 0.000135199 8.4728e-05 0.00717012 0.00980479 0.300214 0.250388 3.11848 2.87057 
        </DataArray>
      </CellData>
    </Piece>
  </UnstructuredGrid>
</VTKFile>
