<?xml version="1.0"?>
<VTKFile type="UnstructuredGrid" version="0.1" byte_order="LittleEndian">
  <UnstructuredGrid>
    <Piece NumberOfPoints="50" NumberOfCells="65">
      <Points>
        <DataArray type="Float32" NumberOfComponents="3" format="ascii">
          0 5 0 0 -5 0 15 0.2 0 15 -0.2 0 35 0.2 0 35 -0.2 0 2.14286 4.31429 0 4.28571 3.62857 0 6.42857 2.94286 0 8.57143 2.25714 0 10.7143 1.57143 0 12.8571 0.885714 0 17.8571 0.2 0 20.7143 0.2 0 23.5714 0.2 0 26.4286 0.2 0 29.2857 0.2 0 32.1429 0.2 0 32.1429 -0.2 0 29.2857 -0.2 0 26.4286 -0.2 0 23.5714 -0.2 0 20.7143 -0.2 0 17.8571 -0.2 0 12.8571 -0.885714 0 10.7143 -1.57143 0 8.57143 -2.25714 0 6.42857 -2.94286 0 4.28571 -3.62857 0 2.14286 -4.31429 0 0 -2.5 0 0 -6.16307e-12 0 0 2.5 0 3.95974 -5.7158e-13 0 13.9286 -3.66374e-15 0 6.61813 2.81487e-12 0 2.86365 2.0434 0 2.86365 -2.0434 0 9.43036 1.987e-12 0 11.3926 2.79508e-14 0 4.83116 1.72297 0 4.83116 -1.72297 0 1.90629 -3.21031e-12 0 33.5714 0 0 16.4286 -1.80625e-18 0 25 6.93889e-18 0 19.2857 -6.93889e-18 0 30.7143 0 0 22.1429 0 0 27.8571 0 0 
        </DataArray>
      </Points>
      <Cells>
        <DataArray type="Int32" Name="connectivity" format="ascii">
          8 9 35 26 27 35 8 35 40 27 41 35 30 42 37 32 36 42 33 40 35 33 35 41 29 30 37 6 36 32 30 31 42 31 32 42 0 6 32 30 29 1 26 35 38 9 38 35 6 7 36 28 29 37 7 40 36 33 41 37 33 36 40 28 37 41 9 10 38 25 26 38 33 42 36 33 37 42 11 34 24 24 25 39 10 11 39 25 38 39 10 39 38 11 24 39 27 28 41 7 8 40 2 34 11 3 24 34 2 3 34 2 44 12 3 23 44 4 17 43 5 43 18 12 46 13 13 48 14 14 45 15 15 49 16 16 47 17 18 47 19 19 49 20 20 45 21 21 48 22 22 46 23 2 3 44 4 43 5 12 44 23 12 23 46 13 46 22 13 22 48 14 21 45 14 48 21 15 45 20 15 20 49 16 19 47 16 49 19 17 18 43 17 47 18 
        </DataArray>
        <DataArray type="Int32" Name="offsets" format="ascii">
          3 6 9 12 15 18 21 24 27 30 33 36 39 42 45 48 51 54 57 60 63 66 69 72 75 78 81 84 87 90 93 96 99 102 105 108 111 114 117 120 123 126 129 132 135 138 141 144 147 150 153 156 159 162 165 168 171 174 177 180 183 186 189 192 195 
        </DataArray>
        <DataArray type="UInt8" Name="types" format="ascii">
          5 5 5 5 5 5 5 5 5 5 5 5 5 5 5 5 5 5 5 5 5 5 5 5 5 5 5 5 5 5 5 5 5 5 5 5 5 5 5 5 5 5 5 5 5 5 5 5 5 5 5 5 5 5 5 5 5 5 5 5 5 5 5 5 5 
        </DataArray>
      </Cells>
      <CellData>
        <DataArray type="Float32" Name="F0_Alpha_SG_co2liq_mod.xml" format="ascii">
1.72682e-10 1.72682e-10 1.72682e-10 1.72682e-10 1.71277e-10 1.71279e-10 1.72682e-10 1.72682e-10 1.7163e-10 1.71667e-10 1.6933e-10 1.69329e-10 1.69109e-10 1.69119e-10 1.72682e-10 1.72682e-10 1.72666e-10 1.72675e-10 1.72687e-10 1.72683e-10 1.72683e-10 1.72684e-10 1.72682e-10 1.72682e-10 1.7269e-10 1.7269e-10 1.72682e-10 1.72682e-10 1.72682e-10 1.72682e-10 1.72682e-10 1.72682e-10 1.72682e-10 1.72682e-10 1.72682e-10 1.72682e-10 1.72682e-10 1.72682e-10 1.72682e-10 1.72808e-10 1.72808e-10 1.72682e-10 1.72682e-10 1.72682e-10 1.72682e-10 1.72683e-10 1.72683e-10 1.72682e-10 1.72682e-10 1.72682e-10 1.72682e-10 1.72682e-10 1.72931e-10 1.72682e-10 1.72682e-10 1.72682e-10 1.72682e-10 1.72682e-10 1.72682e-10 1.72682e-10 1.72682e-10 1.72682e-10 1.72682e-10 1.7273e-10 1.72685e-10 
        </DataArray>
        <DataArray type="Float32" Name="F0_Density_SG_co2liq_mod.xml" format="ascii">
5897.13 5897.13 5897.13 5897.13 5990.3 5990.21 5897.13 5897.13 5967.11 5964.77 6166.77 6166.82 6174.19 6173.33 5897.13 5897.13 5898.08 5897.56 5896.78 5897.08 5897.08 5897.03 5897.13 5897.13 5896.55 5896.59 5897.13 5897.13 5897.13 5897.13 5897.13 5897.13 5897.13 5897.11 5897.13 5897.13 5897.13 5897.13 5897.13 5888.99 5888.99 5897.13 5897.13 5897.13 5897.13 5897.08 5897.08 5897.13 5897.13 5897.13 5897.13 5897.13 5879.44 5897.13 5897.13 5897.13 5897.13 5897.13 5897.13 5897.13 5897.13 5897.12 5897.13 5894.06 5896.94 
        </DataArray>
        <DataArray type="Float32" Name="F0_Temperature_SG_co2liq_mod.xml" format="ascii">
41.7807 41.7807 41.7807 41.7807 41.999 41.9988 41.7807 41.7807 41.9551 41.9504 42.2233 42.2234 42.2301 42.2293 41.7807 41.7807 41.7837 41.782 41.7796 41.7805 41.7805 41.7803 41.7807 41.7807 41.7789 41.779 41.7807 41.7807 41.7807 41.7807 41.7807 41.7807 41.7807 41.7806 41.7807 41.7807 41.7807 41.7807 41.7807 41.7542 41.7542 41.7807 41.7807 41.7807 41.7807 41.7805 41.7805 41.7807 41.7807 41.7807 41.7807 41.7807 41.7206 41.7807 41.7807 41.7807 41.7807 41.7807 41.7807 41.7807 41.7807 41.7806 41.7807 41.7709 41.7801 
        </DataArray>
        <DataArray type="Float32" Name="F0_Mass fraction_SG_co2liq_mod.xml" format="ascii">
9.5944e-09 9.5944e-09 9.59442e-09 9.5944e-09 6.75837e-09 6.76009e-09 9.59442e-09 9.5944e-09 7.28189e-09 7.33761e-09 3.9989e-09 3.99856e-09 4.00259e-09 4.01048e-09 9.5944e-09 9.5944e-09 9.55636e-09 9.57815e-09 9.60915e-09 9.59666e-09 9.59671e-09 9.59874e-09 9.5944e-09 9.5944e-09 9.6211e-09 9.61948e-09 9.5944e-09 9.5944e-09 9.5944e-09 9.5944e-09 9.5944e-09 9.5944e-09 9.59454e-09 9.59542e-09 9.5944e-09 9.5944e-09 9.5944e-09 9.5944e-09 9.5944e-09 9.9542e-09 9.9542e-09 9.5944e-09 9.5944e-09 9.5944e-09 9.5944e-09 9.5964e-09 9.59671e-09 9.5944e-09 9.5944e-09 9.5944e-09 9.5944e-09 9.5944e-09 1.05047e-08 9.5944e-09 9.5944e-09 9.5944e-09 9.5944e-09 9.5944e-09 9.5944e-09 9.5944e-09 9.5944e-09 9.59476e-09 9.59441e-09 9.72611e-09 9.60259e-09 
        </DataArray>
        <DataArray type="Float32" Name="F1_Alpha_SG_co2gas_mod.xml" format="ascii">
1 1 1 1 1 1 1 1 1 1 1 1 1 1 1 1 1 1 1 1 1 1 1 1 1 1 1 1 1 1 1 1 1 1 1 1 1 1 1 1 1 1 1 1 1 1 1 1 1 1 1 1 1 1 1 1 1 1 1 1 1 1 1 1 1 
        </DataArray>
        <DataArray type="Float32" Name="F1_Density_SG_co2gas_mod.xml" format="ascii">
106.138 106.138 106.138 106.138 151.812 151.772 106.138 106.138 140.642 139.549 261.126 261.149 260.859 260.324 106.138 106.138 106.568 106.321 105.972 106.112 106.112 106.089 106.138 106.138 105.838 105.856 106.138 106.138 106.138 106.138 106.138 106.138 106.136 106.126 106.138 106.138 106.138 106.138 106.138 102.235 102.235 106.138 106.138 106.138 106.138 106.115 106.112 106.138 106.138 106.138 106.138 106.138 96.7885 106.138 106.138 106.138 106.138 106.138 106.138 106.138 106.138 106.134 106.138 104.675 106.046 
        </DataArray>
        <DataArray type="Float32" Name="F1_Temperature_SG_co2gas_mod.xml" format="ascii">
466.385 466.385 466.385 466.385 459.019 459.015 466.385 466.385 461.376 461.467 397.579 397.582 403.267 403.483 466.385 466.385 466.589 466.517 466.342 466.379 466.378 466.372 466.385 466.385 466.427 466.437 466.385 466.385 466.385 466.385 466.385 466.385 466.385 466.382 466.385 466.385 466.385 466.385 466.385 465.367 465.367 466.385 466.385 466.385 466.385 466.379 466.378 466.385 466.385 466.385 466.385 466.385 467.637 466.385 466.385 466.385 466.385 466.385 466.385 466.385 466.385 466.384 466.385 466 466.361 
        </DataArray>
        <DataArray type="Float32" Name="F1_Mass fraction_SG_co2gas_mod.xml" format="ascii">
1 1 1 1 1 1 1 1 1 1 1 1 1 1 1 1 1 1 1 1 1 1 1 1 1 1 1 1 1 1 1 1 1 1 1 1 1 1 1 1 1 1 1 1 1 1 1 1 1 1 1 1 1 1 1 1 1 1 1 1 1 1 1 1 1 
        </DataArray>
        <DataArray type="Float32" Name="Density_Mixture" format="ascii">
106.138 106.138 106.138 106.138 151.812 151.772 106.138 106.138 140.642 139.549 261.126 261.149 260.859 260.324 106.138 106.138 106.568 106.321 105.972 106.112 106.112 106.089 106.138 106.138 105.838 105.856 106.138 106.138 106.138 106.138 106.138 106.138 106.136 106.126 106.138 106.138 106.138 106.138 106.138 102.235 102.235 106.138 106.138 106.138 106.138 106.115 106.112 106.138 106.138 106.138 106.138 106.138 96.7885 106.138 106.138 106.138 106.138 106.138 106.138 106.138 106.138 106.134 106.138 104.675 106.046 
        </DataArray>
        <DataArray type="Float32" Name="Pressure_Mixture" format="ascii">
6.27186e+06 6.27186e+06 6.27184e+06 6.27186e+06 9.1904e+06 9.18767e+06 6.27184e+06 6.27186e+06 8.49691e+06 8.42585e+06 1.41261e+07 1.41275e+07 1.43253e+07 1.43023e+07 6.27186e+06 6.27186e+06 6.304e+06 6.28625e+06 6.26e+06 6.27004e+06 6.27e+06 6.26837e+06 6.27186e+06 6.27186e+06 6.25228e+06 6.25365e+06 6.27186e+06 6.27186e+06 6.27186e+06 6.27186e+06 6.27186e+06 6.27186e+06 6.27175e+06 6.27104e+06 6.27186e+06 6.27186e+06 6.27186e+06 6.27186e+06 6.27186e+06 5.9936e+06 5.9936e+06 6.27186e+06 6.27186e+06 6.27186e+06 6.27186e+06 6.27024e+06 6.27e+06 6.27186e+06 6.27186e+06 6.27186e+06 6.27186e+06 6.27186e+06 5.65887e+06 6.27186e+06 6.27186e+06 6.27186e+06 6.27186e+06 6.27186e+06 6.27186e+06 6.27186e+06 6.27186e+06 6.27157e+06 6.27185e+06 6.16738e+06 6.26527e+06 
        </DataArray>
        <DataArray type="Float32" Name="Velocity_Mixture" NumberOfComponents="3" format="ascii">
0 0 0 0 0 0 -0.000335255 0.000425697 0 3.46554e-05 5.19763e-05 0 106.983 -18.6114 0 107.07 18.926 0 -0.000399851 0.000208087 0 -5.69584e-05 -2.56397e-05 0 83.5268 27.8636 0 83.1742 -24.5232 0 275.696 1.61041 0 275.673 -1.62759 0 259.694 -16.6928 0 253.841 34.4077 0 0 0 0 0 0 0 -0.0636659 -0.767604 0 0.561625 -0.0715963 0 -0.308217 0.264352 0 -0.0524539 0.0161479 0 -0.0505694 0.00950749 0 -0.100266 -0.0784219 0 0 0 0 0 0 0 -0.499101 0.20001 0 -0.453021 -0.17373 0 0 0 0 0 0 0 0 0 0 0 0 0 0 0 0 0 0 0 -0.00329324 0.000743498 0 -0.027947 -0.00695171 0 0 0 0 0 0 0 0 0 0 0 0 0 0 0 0 1.89402 -1.51649 0 1.89402 1.51649 0 0 0 0 0 0 0 0 0 0 6.19861e-07 -2.84845e-05 0 0.00812934 -0.0216349 0 0.0102458 0.0234817 0 3.9125e-06 3.67311e-05 0 0 0 0 0 0 0 0 0 0 0 0 0 18.8455 0 0 0 0 0 0 0 0 0 0 0 0 0 0 0 0 0 0 0 0 0 0 0 0 0 0 0.0024561 0.000697473 0 0.000490112 -1.50366e-05 0 0.922346 0 0 0.333699 -0.0144214 0 
        </DataArray>
        <DataArray type="Float32" Name="gradRho" format="ascii">
6.03564e-05 7.73921e-06 0.0034668 0.000460012 46.9675 47.084 0.00997546 0.00979383 39.3869 39.2029 75.9221 75.9614 28.6401 28.2558 1.39935e-07 1.05943e-07 11.0177 11.3935 0.102469 0.092684 0.101805 0.0521589 4.08956e-10 7.72884e-10 15.6961 15.7119 0 0 0 0 0 0 0.0167345 0.0553618 0 0 0 0 0 0.960339 0.960339 0 0 1.38454e-08 3.07821e-05 0.0146091 0.0130617 2.73713e-05 1.23965e-08 0 0 0 0.785226 0 0 0 0 1.69577e-09 2.80323e-11 8.87091e-07 4.78987e-06 0.00374188 0.00138327 0.714244 0.486242 
        </DataArray>
      </CellData>
    </Piece>
  </UnstructuredGrid>
</VTKFile>
