<?xml version="1.0"?>
<VTKFile type="UnstructuredGrid" version="0.1" byte_order="LittleEndian">
  <UnstructuredGrid>
    <Piece NumberOfPoints="50" NumberOfCells="65">
      <Points>
        <DataArray type="Float32" NumberOfComponents="3" format="ascii">
          0 5 0 0 -5 0 15 0.2 0 15 -0.2 0 35 0.2 0 35 -0.2 0 2.14286 4.31429 0 4.28571 3.62857 0 6.42857 2.94286 0 8.57143 2.25714 0 10.7143 1.57143 0 12.8571 0.885714 0 17.8571 0.2 0 20.7143 0.2 0 23.5714 0.2 0 26.4286 0.2 0 29.2857 0.2 0 32.1429 0.2 0 32.1429 -0.2 0 29.2857 -0.2 0 26.4286 -0.2 0 23.5714 -0.2 0 20.7143 -0.2 0 17.8571 -0.2 0 12.8571 -0.885714 0 10.7143 -1.57143 0 8.57143 -2.25714 0 6.42857 -2.94286 0 4.28571 -3.62857 0 2.14286 -4.31429 0 0 -2.5 0 0 -6.16307e-12 0 0 2.5 0 3.95974 -5.7158e-13 0 13.9286 -3.66374e-15 0 6.61813 2.81487e-12 0 2.86365 2.0434 0 2.86365 -2.0434 0 9.43036 1.987e-12 0 11.3926 2.79508e-14 0 4.83116 1.72297 0 4.83116 -1.72297 0 1.90629 -3.21031e-12 0 33.5714 0 0 16.4286 -1.80625e-18 0 25 6.93889e-18 0 19.2857 -6.93889e-18 0 30.7143 0 0 22.1429 0 0 27.8571 0 0 
        </DataArray>
      </Points>
      <Cells>
        <DataArray type="Int32" Name="connectivity" format="ascii">
          8 9 35 26 27 35 8 35 40 27 41 35 30 42 37 32 36 42 33 40 35 33 35 41 29 30 37 6 36 32 30 31 42 31 32 42 0 6 32 30 29 1 26 35 38 9 38 35 6 7 36 28 29 37 7 40 36 33 41 37 33 36 40 28 37 41 9 10 38 25 26 38 33 42 36 33 37 42 11 34 24 24 25 39 10 11 39 25 38 39 10 39 38 11 24 39 27 28 41 7 8 40 2 34 11 3 24 34 2 3 34 2 44 12 3 23 44 4 17 43 5 43 18 12 46 13 13 48 14 14 45 15 15 49 16 16 47 17 18 47 19 19 49 20 20 45 21 21 48 22 22 46 23 2 3 44 4 43 5 12 44 23 12 23 46 13 46 22 13 22 48 14 21 45 14 48 21 15 45 20 15 20 49 16 19 47 16 49 19 17 18 43 17 47 18 
        </DataArray>
        <DataArray type="Int32" Name="offsets" format="ascii">
          3 6 9 12 15 18 21 24 27 30 33 36 39 42 45 48 51 54 57 60 63 66 69 72 75 78 81 84 87 90 93 96 99 102 105 108 111 114 117 120 123 126 129 132 135 138 141 144 147 150 153 156 159 162 165 168 171 174 177 180 183 186 189 192 195 
        </DataArray>
        <DataArray type="UInt8" Name="types" format="ascii">
          5 5 5 5 5 5 5 5 5 5 5 5 5 5 5 5 5 5 5 5 5 5 5 5 5 5 5 5 5 5 5 5 5 5 5 5 5 5 5 5 5 5 5 5 5 5 5 5 5 5 5 5 5 5 5 5 5 5 5 5 5 5 5 5 5 
        </DataArray>
      </Cells>
      <CellData>
        <DataArray type="Float32" Name="F0_Alpha_SG_co2liq_mod.xml" format="ascii">
1.6842e-10 1.67812e-10 1.64517e-10 1.64935e-10 1.64989e-10 1.64901e-10 1.63889e-10 1.63546e-10 1.63248e-10 1.63214e-10 1.67783e-10 1.67783e-10 1.60595e-10 1.60895e-10 1.71959e-10 1.71509e-10 1.62247e-10 1.62513e-10 1.61749e-10 1.62433e-10 1.63047e-10 1.61244e-10 1.72596e-10 1.72709e-10 1.63812e-10 1.63823e-10 1.72682e-10 1.72682e-10 1.72688e-10 1.72689e-10 1.72691e-10 1.72683e-10 1.61834e-10 1.61842e-10 1.72682e-10 1.72682e-10 1.72682e-10 1.72682e-10 1.72682e-10 1.73383e-10 1.73383e-10 1.72682e-10 1.72683e-10 1.72692e-10 1.7276e-10 1.73008e-10 1.73008e-10 1.7276e-10 1.72692e-10 1.72683e-10 1.72682e-10 1.72682e-10 1.73411e-10 1.72682e-10 1.72682e-10 1.72682e-10 1.72682e-10 1.72689e-10 1.72683e-10 1.72697e-10 1.72739e-10 1.72946e-10 1.72783e-10 1.73319e-10 1.73064e-10 
        </DataArray>
        <DataArray type="Float32" Name="F0_Density_SG_co2liq_mod.xml" format="ascii">
6138.86 6171.51 6358.05 6336.49 6523.25 6528.45 6459.31 6480.82 6642.28 6644.36 6347.8 6347.78 6830.69 6810.04 5940.78 5966.96 6664.81 6650.36 6644.77 6615.11 6580.8 6673.15 5902.55 5895.39 6560.58 6559.62 5897.13 5897.12 5896.73 5896.71 5896.56 5897.06 6558.24 6555 5897.13 5897.13 5897.13 5897.13 5897.13 5848.47 5848.47 5897.13 5897.08 5896.47 5892.11 5875.76 5875.76 5892.12 5896.47 5897.08 5897.13 5897.13 5842.58 5897.13 5897.13 5897.13 5897.1 5896.7 5897.05 5896.19 5893.49 5879.95 5890.63 5853.55 5871.8 
        </DataArray>
        <DataArray type="Float32" Name="F0_Temperature_SG_co2liq_mod.xml" format="ascii">
42.1966 42.2277 42.3574 42.3456 42.4294 42.4312 42.405 42.4136 42.4656 42.4662 42.3519 42.3519 42.5048 42.5014 41.8983 41.9548 42.4714 42.4677 42.4663 42.4583 42.4482 42.4734 41.7974 41.7752 42.4419 42.4416 41.7807 41.7806 41.7794 41.7793 41.7789 41.7805 42.4412 42.4401 41.7807 41.7807 41.7807 41.7807 41.7807 41.5852 41.5852 41.7807 41.7805 41.7786 41.7645 41.7069 41.7069 41.7646 41.7786 41.7805 41.7807 41.7807 41.5527 41.7807 41.7807 41.7807 41.7806 41.7793 41.7804 41.7777 41.7691 41.7225 41.7597 41.6111 41.6915 
        </DataArray>
        <DataArray type="Float32" Name="F0_Mass fraction_SG_co2liq_mod.xml" format="ascii">
5.13603e-09 4.87485e-09 3.7404e-09 3.82106e-09 2.32829e-09 2.31918e-09 2.9602e-09 2.89318e-09 2.09881e-09 2.09586e-09 2.74698e-09 2.74704e-09 1.81664e-09 1.84209e-09 8.1438e-09 7.5051e-09 2.15683e-09 2.17465e-09 2.32452e-09 2.34244e-09 2.39714e-09 2.2827e-09 9.37338e-09 9.6682e-09 2.35668e-09 2.35938e-09 9.59424e-09 9.59499e-09 9.61114e-09 9.61218e-09 9.61861e-09 9.59732e-09 2.79997e-09 2.82031e-09 9.59434e-09 9.59439e-09 9.5944e-09 9.5944e-09 9.5944e-09 1.25335e-08 1.25334e-08 9.59451e-09 9.5966e-09 9.62226e-09 9.8121e-09 1.06249e-08 1.0625e-08 9.81158e-09 9.62231e-09 9.59661e-09 9.59451e-09 9.5944e-09 1.33421e-08 9.59441e-09 9.59446e-09 9.5946e-09 9.59569e-09 9.61266e-09 9.59789e-09 9.63403e-09 9.75083e-09 1.0399e-08 9.87931e-09 1.20995e-08 1.08566e-08 
        </DataArray>
        <DataArray type="Float32" Name="F1_Alpha_SG_co2gas_mod.xml" format="ascii">
1 1 1 1 1 1 1 1 1 1 1 1 1 1 1 1 1 1 1 1 1 1 1 1 1 1 1 1 1 1 1 1 1 1 1 1 1 1 1 1 1 1 1 1 1 1 1 1 1 1 1 1 1 1 1 1 1 1 1 1 1 1 1 1 1 
        </DataArray>
        <DataArray type="Float32" Name="F1_Density_SG_co2gas_mod.xml" format="ascii">
201.304 212.448 279.651 273.514 462.257 464.192 357.614 366.349 516.646 517.424 387.718 387.708 603.849 594.814 125.442 136.359 501.359 496.984 462.37 458.714 447.609 471.374 108.686 105.313 456.024 455.466 106.14 106.131 105.95 105.938 105.866 106.105 379.056 376.156 106.138 106.138 106.138 106.138 106.138 80.9054 80.9058 106.136 106.113 105.825 103.742 95.6768 95.6759 103.747 105.824 106.113 106.136 106.138 75.9375 106.138 106.137 106.136 106.123 105.933 106.098 105.693 104.405 97.7894 103.023 83.8491 93.6019 
        </DataArray>
        <DataArray type="Float32" Name="F1_Temperature_SG_co2gas_mod.xml" format="ascii">
489.846 492.823 495.162 492.255 362.247 362.682 437.097 436.93 363.86 364.003 352.452 352.452 364.458 364.116 472.665 475.637 382.657 381.043 407.497 399.639 396.35 410.026 467.058 466.171 381.378 381.482 466.386 466.384 466.336 466.333 466.315 466.377 457.753 459.792 466.385 466.385 466.385 466.385 466.385 459.468 459.468 466.385 466.379 466.303 465.751 463.578 463.573 465.752 466.303 466.379 466.385 466.385 467.301 466.385 466.385 466.385 466.381 466.331 466.375 466.269 465.927 464.136 465.581 460.151 463.241 
        </DataArray>
        <DataArray type="Float32" Name="F1_Mass fraction_SG_co2gas_mod.xml" format="ascii">
1 1 1 1 1 1 1 1 1 1 1 1 1 1 1 1 1 1 1 1 1 1 1 1 1 1 1 1 1 1 1 1 1 1 1 1 1 1 1 1 1 1 1 1 1 1 1 1 1 1 1 1 1 1 1 1 1 1 1 1 1 1 1 1 1 
        </DataArray>
        <DataArray type="Float32" Name="Density_Mixture" format="ascii">
201.304 212.448 279.651 273.514 462.257 464.192 357.614 366.349 516.646 517.424 387.718 387.708 603.849 594.814 125.442 136.359 501.359 496.984 462.37 458.714 447.609 471.374 108.686 105.313 456.024 455.466 106.14 106.131 105.95 105.938 105.866 106.105 379.056 376.156 106.138 106.138 106.138 106.138 106.138 80.9054 80.9058 106.137 106.113 105.825 103.742 95.6768 95.6759 103.747 105.824 106.113 106.136 106.138 75.9375 106.138 106.137 106.136 106.123 105.933 106.098 105.693 104.405 97.7894 103.023 83.8491 93.6019 
        </DataArray>
        <DataArray type="Float32" Name="Pressure_Mixture" format="ascii">
1.33727e+07 1.42535e+07 1.91372e+07 1.85827e+07 2.33275e+07 2.3458e+07 2.17167e+07 2.226e+07 2.62969e+07 2.63485e+07 1.88739e+07 1.88734e+07 3.09372e+07 3.04316e+07 7.6876e+06 8.49238e+06 2.68553e+07 2.64972e+07 2.63587e+07 2.56221e+07 2.47675e+07 2.70617e+07 6.45431e+06 6.21298e+06 2.42625e+07 2.42385e+07 6.27198e+06 6.27138e+06 6.25841e+06 6.25758e+06 6.25244e+06 6.26951e+06 2.42041e+07 2.41231e+07 6.2719e+06 6.27187e+06 6.27186e+06 6.27185e+06 6.27185e+06 4.48928e+06 4.48931e+06 6.27177e+06 6.27009e+06 6.2495e+06 6.10075e+06 5.52754e+06 5.52741e+06 6.10114e+06 6.24946e+06 6.27008e+06 6.27177e+06 6.27186e+06 4.24523e+06 6.27185e+06 6.27181e+06 6.2717e+06 6.27082e+06 6.25719e+06 6.26905e+06 6.2401e+06 6.14807e+06 5.67705e+06 6.04986e+06 4.69314e+06 5.38389e+06 
        </DataArray>
        <DataArray type="Float32" Name="Velocity_Mixture" NumberOfComponents="3" format="ascii">
188.311 -26.5097 0 173.519 50.8472 0 246.836 -39.2466 0 250.434 42.6753 0 321.054 30.0707 0 320.765 -31.7426 0 291.556 -16.4284 0 293.14 27.1576 0 303.114 51.2068 0 303.28 -51.8755 0 343.793 0.0570398 0 343.797 -0.0541039 0 271.272 -42.8383 0 272.653 46.135 0 37.2838 8.50212 0 71.879 -20.5345 0 292.93 -71.6882 0 297.156 76.7648 0 295.358 -72.5775 0 290.418 45.9931 0 298.73 -39.8868 0 289.758 86.2602 0 4.30039 -1.05835 0 -1.71024 0.548417 0 305.923 -17.4729 0 305.237 16.6933 0 0.00440934 -0.000841595 0 -0.00293754 0.00711128 0 -0.432269 -0.0294348 0 -0.373684 0.144676 0 -0.544501 0.659628 0 -0.0628226 0.0783033 0 285.105 87.3008 0 286.855 -72.7976 0 0.00100508 0.000288376 0 0.000251299 -6.32327e-05 0 2.31065e-06 -0.000151088 0 0 -1.53671e-05 0 0 1.65971e-05 0 36.4963 -0.577398 0 36.5006 0.579166 0 0.000590469 -0.000399747 0 0.0130674 -0.00623999 0 0.180754 -0.0578334 0 1.60477 -0.288669 0 9.19048 -0.676925 0 9.18111 0.664834 0 1.62391 0.278782 0 0.188085 0.05552 0 0.0138187 0.00602447 0 0.000642516 0.000391407 0 0 0 0 73.0303 0.00228761 0 0.000330668 0 0 0.000541326 5.39926e-05 0 0.00982605 -0.000254676 0 0.0141659 0.00119714 0 0.231554 0.0138932 0 0.175906 -0.00412698 0 1.96606 -0.0387943 0 2.40184 0.0634877 0 15.3961 0.0426027 0 12.9149 -0.0881794 0 58.2623 -0.00192045 0 45.4762 -0.0468936 0 
        </DataArray>
        <DataArray type="Float32" Name="gradRho" format="ascii">
33.4494 32.4786 51.2821 48.5531 33.2025 33.2083 52.0545 55.4453 40.1293 41.3271 51.7695 53.1184 20.404 18.4547 28.6535 27.9055 13.5281 11.7252 47.4379 32.757 35.3108 46.0518 10.005 6.67847 5.51126 1.35017 0.0145624 0.0696138 0.063018 0.274107 0.930038 0.0793468 48.6679 45.0738 0.000525865 0.000735093 0.000297227 8.11626e-06 6.62113e-06 0.772573 0.772714 0.000150072 0.00212049 0.0183227 0.10058 0.30202 0.302034 0.101024 0.0182241 0.00208143 0.000145123 9.49704e-06 0.716276 0.000205989 0.000259584 0.00441145 0.00530259 0.068434 0.0594615 0.463535 0.514412 2.03502 1.90121 3.69641 3.61287 
        </DataArray>
      </CellData>
    </Piece>
  </UnstructuredGrid>
</VTKFile>
