<?xml version="1.0"?>
<VTKFile type="UnstructuredGrid" version="0.1" byte_order="LittleEndian">
  <UnstructuredGrid>
    <Piece NumberOfPoints="50" NumberOfCells="65">
      <Points>
        <DataArray type="Float32" NumberOfComponents="3" format="ascii">
          0 5 0 0 -5 0 15 0.2 0 15 -0.2 0 35 0.2 0 35 -0.2 0 2.14286 4.31429 0 4.28571 3.62857 0 6.42857 2.94286 0 8.57143 2.25714 0 10.7143 1.57143 0 12.8571 0.885714 0 17.8571 0.2 0 20.7143 0.2 0 23.5714 0.2 0 26.4286 0.2 0 29.2857 0.2 0 32.1429 0.2 0 32.1429 -0.2 0 29.2857 -0.2 0 26.4286 -0.2 0 23.5714 -0.2 0 20.7143 -0.2 0 17.8571 -0.2 0 12.8571 -0.885714 0 10.7143 -1.57143 0 8.57143 -2.25714 0 6.42857 -2.94286 0 4.28571 -3.62857 0 2.14286 -4.31429 0 0 -2.5 0 0 -6.16307e-12 0 0 2.5 0 3.95974 -5.7158e-13 0 13.9286 -3.66374e-15 0 6.61813 2.81487e-12 0 2.86365 2.0434 0 2.86365 -2.0434 0 9.43036 1.987e-12 0 11.3926 2.79508e-14 0 4.83116 1.72297 0 4.83116 -1.72297 0 1.90629 -3.21031e-12 0 33.5714 0 0 16.4286 -1.80625e-18 0 25 6.93889e-18 0 19.2857 -6.93889e-18 0 30.7143 0 0 22.1429 0 0 27.8571 0 0 
        </DataArray>
      </Points>
      <Cells>
        <DataArray type="Int32" Name="connectivity" format="ascii">
          8 9 35 26 27 35 8 35 40 27 41 35 30 42 37 32 36 42 33 40 35 33 35 41 29 30 37 6 36 32 30 31 42 31 32 42 0 6 32 30 29 1 26 35 38 9 38 35 6 7 36 28 29 37 7 40 36 33 41 37 33 36 40 28 37 41 9 10 38 25 26 38 33 42 36 33 37 42 11 34 24 24 25 39 10 11 39 25 38 39 10 39 38 11 24 39 27 28 41 7 8 40 2 34 11 3 24 34 2 3 34 2 44 12 3 23 44 4 17 43 5 43 18 12 46 13 13 48 14 14 45 15 15 49 16 16 47 17 18 47 19 19 49 20 20 45 21 21 48 22 22 46 23 2 3 44 4 43 5 12 44 23 12 23 46 13 46 22 13 22 48 14 21 45 14 48 21 15 45 20 15 20 49 16 19 47 16 49 19 17 18 43 17 47 18 
        </DataArray>
        <DataArray type="Int32" Name="offsets" format="ascii">
          3 6 9 12 15 18 21 24 27 30 33 36 39 42 45 48 51 54 57 60 63 66 69 72 75 78 81 84 87 90 93 96 99 102 105 108 111 114 117 120 123 126 129 132 135 138 141 144 147 150 153 156 159 162 165 168 171 174 177 180 183 186 189 192 195 
        </DataArray>
        <DataArray type="UInt8" Name="types" format="ascii">
          5 5 5 5 5 5 5 5 5 5 5 5 5 5 5 5 5 5 5 5 5 5 5 5 5 5 5 5 5 5 5 5 5 5 5 5 5 5 5 5 5 5 5 5 5 5 5 5 5 5 5 5 5 5 5 5 5 5 5 5 5 5 5 5 5 
        </DataArray>
      </Cells>
      <CellData>
        <DataArray type="Float32" Name="F0_Alpha_SG_co2liq_mod.xml" format="ascii">
1.72392e-10 1.72446e-10 1.71289e-10 1.7167e-10 1.65205e-10 1.65124e-10 1.68386e-10 1.68181e-10 1.6406e-10 1.63906e-10 1.67754e-10 1.67754e-10 1.62373e-10 1.62672e-10 1.7268e-10 1.72643e-10 1.63303e-10 1.62996e-10 1.63955e-10 1.64817e-10 1.65104e-10 1.6353e-10 1.72682e-10 1.72682e-10 1.65055e-10 1.65094e-10 1.72682e-10 1.72682e-10 1.72682e-10 1.72682e-10 1.72683e-10 1.72682e-10 1.67707e-10 1.67965e-10 1.72682e-10 1.72682e-10 1.72682e-10 1.72682e-10 1.72682e-10 1.73295e-10 1.73295e-10 1.72682e-10 1.72682e-10 1.72684e-10 1.72708e-10 1.72871e-10 1.72871e-10 1.72708e-10 1.72684e-10 1.72682e-10 1.72682e-10 1.72682e-10 1.73335e-10 1.72682e-10 1.72682e-10 1.72682e-10 1.72682e-10 1.72683e-10 1.72682e-10 1.72685e-10 1.72699e-10 1.72823e-10 1.72719e-10 1.73214e-10 1.72919e-10 
        </DataArray>
        <DataArray type="Float32" Name="F0_Density_SG_co2liq_mod.xml" format="ascii">
5915.1 5911.84 5978.72 5956.38 6484.89 6490 6149.22 6161.01 6562.12 6570.43 6346.3 6346.28 6701.31 6681.22 5897.25 5899.57 6537.02 6558.11 6429.31 6406.91 6390.35 6452.83 5897.11 5897.13 6440.37 6437.85 5897.13 5897.13 5897.12 5897.12 5897.04 5897.13 6175.65 6160.23 5897.13 5897.13 5897.13 5897.13 5897.13 5855.29 5855.29 5897.13 5897.13 5897.02 5895.49 5884.9 5884.91 5895.49 5897.02 5897.13 5897.13 5897.13 5848.52 5897.13 5897.13 5897.13 5897.13 5897.07 5897.12 5896.94 5896.07 5888.04 5894.79 5861.36 5881.67 
        </DataArray>
        <DataArray type="Float32" Name="F0_Temperature_SG_co2liq_mod.xml" format="ascii">
41.8335 41.8244 41.9777 41.933 42.4152 42.4172 42.2068 42.218 42.4424 42.445 42.3511 42.3511 42.48 42.4754 41.7811 41.7883 42.4341 42.4411 42.3922 42.3819 42.374 42.4023 41.7806 41.7807 42.397 42.3959 41.7807 41.7807 41.7806 41.7806 41.7804 41.7807 42.2314 42.2173 41.7807 41.7807 41.7807 41.7807 41.7807 41.6196 41.6196 41.7807 41.7807 41.7803 41.7755 41.7402 41.7402 41.7755 41.7803 41.7807 41.7807 41.7807 41.5855 41.7807 41.7807 41.7807 41.7807 41.7805 41.7806 41.7801 41.7773 41.751 41.7732 41.6477 41.7287 
        </DataArray>
        <DataArray type="Float32" Name="F0_Mass fraction_SG_co2liq_mod.xml" format="ascii">
8.9162e-09 9.02862e-09 7.28159e-09 7.78984e-09 2.48109e-09 2.46952e-09 4.91943e-09 4.81846e-09 2.30637e-09 2.29451e-09 2.76389e-09 2.76397e-09 2.00521e-09 2.03573e-09 9.5893e-09 9.49317e-09 2.58214e-09 2.5272e-09 3.19366e-09 3.10974e-09 3.16321e-09 3.12431e-09 9.59516e-09 9.5944e-09 2.78443e-09 2.79174e-09 9.5944e-09 9.5944e-09 9.59482e-09 9.59472e-09 9.59802e-09 9.59442e-09 4.86538e-09 5.00821e-09 9.5944e-09 9.5944e-09 9.5944e-09 9.5944e-09 9.5944e-09 1.19663e-08 1.19661e-08 9.5944e-09 9.59458e-09 9.59913e-09 9.66391e-09 1.01491e-08 1.01484e-08 9.66401e-09 9.59917e-09 9.59459e-09 9.5944e-09 9.5944e-09 1.27769e-08 9.5944e-09 9.5944e-09 9.59441e-09 9.59449e-09 9.59705e-09 9.59475e-09 9.60228e-09 9.63935e-09 9.99854e-09 9.69419e-09 1.15175e-08 1.03134e-08 
        </DataArray>
        <DataArray type="Float32" Name="F1_Alpha_SG_co2gas_mod.xml" format="ascii">
1 1 1 1 1 1 1 1 1 1 1 1 1 1 1 1 1 1 1 1 1 1 1 1 1 1 1 1 1 1 1 1 1 1 1 1 1 1 1 1 1 1 1 1 1 1 1 1 1 1 1 1 1 1 1 1 1 1 1 1 1 1 1 1 1 
        </DataArray>
        <DataArray type="Float32" Name="F1_Density_SG_co2gas_mod.xml" format="ascii">
114.367 112.916 140.641 131.265 431.8 433.954 210.48 215.041 466.786 469.35 385.188 385.177 542.641 533.886 106.195 107.29 413.422 422.975 330.065 339.568 333.544 337.749 106.129 106.138 381.77 380.713 106.138 106.138 106.133 106.134 106.097 106.138 212.871 206.601 106.138 106.138 106.138 106.138 106.138 84.7964 84.7975 106.138 106.136 106.084 105.361 100.238 100.245 105.36 106.084 106.136 106.138 106.138 79.3428 106.138 106.138 106.138 106.137 106.108 106.134 106.049 105.634 101.774 105.026 88.1505 98.6146 
        </DataArray>
        <DataArray type="Float32" Name="F1_Temperature_SG_co2gas_mod.xml" format="ascii">
468.908 468.39 478.55 477.122 372.343 372.549 477.713 477.808 373.156 374.175 354.075 354.075 365.048 364.603 466.401 466.695 410.814 410.167 457.651 433.239 432.304 459.448 466.383 466.385 400.749 400.704 466.385 466.385 466.384 466.384 466.375 466.385 495.446 496.62 466.385 466.385 466.385 466.385 466.385 460.577 460.578 466.385 466.385 466.371 466.18 464.817 464.816 466.18 466.371 466.385 466.385 466.385 468.72 466.385 466.385 466.385 466.385 466.377 466.384 466.362 466.252 465.223 466.097 461.433 464.52 
        </DataArray>
        <DataArray type="Float32" Name="F1_Mass fraction_SG_co2gas_mod.xml" format="ascii">
1 1 1 1 1 1 1 1 1 1 1 1 1 1 1 1 1 1 1 1 1 1 1 1 1 1 1 1 1 1 1 1 1 1 1 1 1 1 1 1 1 1 1 1 1 1 1 1 1 1 1 1 1 1 1 1 1 1 1 1 1 1 1 1 1 
        </DataArray>
        <DataArray type="Float32" Name="Density_Mixture" format="ascii">
114.367 112.916 140.641 131.265 431.8 433.954 210.48 215.041 466.786 469.35 385.188 385.177 542.641 533.886 106.195 107.29 413.422 422.975 330.065 339.568 333.544 337.749 106.129 106.138 381.77 380.713 106.138 106.138 106.133 106.134 106.097 106.138 212.871 206.601 106.138 106.138 106.138 106.138 106.138 84.7964 84.7975 106.138 106.136 106.084 105.361 100.238 100.245 105.36 106.084 106.136 106.138 106.138 79.3428 106.138 106.138 106.138 106.137 106.108 106.134 106.049 105.634 101.774 105.026 88.1505 98.6146 
        </DataArray>
        <DataArray type="Float32" Name="Pressure_Mixture" format="ascii">
6.86853e+06 6.76167e+06 8.84611e+06 8.17022e+06 2.23625e+07 2.24914e+07 1.36534e+07 1.39714e+07 2.4301e+07 2.45085e+07 1.88353e+07 1.88347e+07 2.77578e+07 2.72613e+07 6.27596e+06 6.35437e+06 2.36728e+07 2.42007e+07 2.09565e+07 2.03867e+07 1.99642e+07 2.15527e+07 6.27124e+06 6.27186e+06 2.1237e+07 2.11732e+07 6.27186e+06 6.27185e+06 6.27152e+06 6.2716e+06 6.26895e+06 6.27184e+06 1.43644e+07 1.39503e+07 6.27186e+06 6.27186e+06 6.27186e+06 6.27186e+06 6.27186e+06 4.76139e+06 4.76147e+06 6.27185e+06 6.27171e+06 6.26805e+06 6.21633e+06 5.85125e+06 5.85169e+06 6.21625e+06 6.26802e+06 6.27171e+06 6.27185e+06 6.27186e+06 4.49161e+06 6.27186e+06 6.27186e+06 6.27185e+06 6.27179e+06 6.26973e+06 6.27157e+06 6.26552e+06 6.23585e+06 5.96044e+06 6.19248e+06 4.99568e+06 5.7379e+06 
        </DataArray>
        <DataArray type="Float32" Name="Velocity_Mixture" NumberOfComponents="3" format="ascii">
22.5945 -0.878989 0 13.3028 3.18733 0 75.382 -6.62826 0 58.6108 -8.15019 0 321.974 14.3951 0 322.443 -17.3541 0 197.427 -7.76326 0 202.853 9.64678 0 309.374 44.7906 0 309.213 -44.7631 0 343.488 0.0927196 0 343.491 -0.0903699 0 288.932 -42.817 0 290.48 45.509 0 0.0462219 -0.543241 0 2.65228 -1.36503 0 288.026 -61.9438 0 290.596 76.2657 0 271.55 -51.5602 0 272.686 22.7685 0 276.224 -13.9758 0 264.09 75.8136 0 -0.226112 -0.19314 0 0.00767422 -0.00694993 0 294.117 -15.9233 0 294.048 17.4894 0 1.32644e-06 0 0 -8.25988e-05 6.41931e-05 0 -0.0109933 -0.00304847 0 -0.00109075 0.0124356 0 -0.0825899 0.0684248 0 -0.000374031 0.000558972 0 166.803 55.3687 0 188.741 -28.361 0 0 0 0 0 0 0 0 0 0 0 0 0 0 0 0 23.3432 -0.814803 0 23.346 0.819165 0 0 -2.07622e-05 0 0.000951176 -0.000773335 0 0.0270834 -0.0150146 0 0.439679 -0.148029 0 4.07415 -0.629677 0 4.10335 0.618926 0 0.458675 0.141867 0 0.0288553 0.0145092 0 0.00104129 0.000757873 0 0 2.28277e-05 0 0 0 0 64.3796 0.00533532 0 0 0 0 0 0 0 0.000430196 0 0 0.000766317 9.73272e-05 0 0.0267412 0.0026914 0 0.017439 -0.00050075 0 0.398227 -0.00995069 0 0.53963 0.0366416 0 6.17222 0.14147 0 4.97378 -0.101254 0 39.0145 -0.00375958 0 30.6731 -0.143504 0 
        </DataArray>
        <DataArray type="Float32" Name="gradRho" format="ascii">
8.72305 6.38675 27.7539 29.1055 21.4794 21.9129 61.7969 65.278 37.4476 42.5253 32.374 33.8755 17.3032 15.8416 1.68789 2.47224 35.619 32.245 73.7483 55.5319 57.2023 74.9433 0.400334 0.0202461 33.3709 30.6599 0.000102235 0.00130476 0.0140901 0.018581 0.0116552 0.0019796 55.2029 52.2268 2.72752e-06 3.07403e-06 4.39918e-07 2.00646e-07 1.66729e-07 0.833832 0.834198 1.17834e-05 0.000308142 0.00523698 0.0466363 0.228841 0.229221 0.0464409 0.00512134 0.000295032 9.65346e-06 7.28422e-08 0.786341 5.7395e-06 8.75957e-06 0.00031604 0.000415016 0.0113056 0.00921157 0.14868 0.171613 1.28551 1.17037 3.98478 3.81881 
        </DataArray>
      </CellData>
    </Piece>
  </UnstructuredGrid>
</VTKFile>
