<?xml version="1.0"?>
<VTKFile type="UnstructuredGrid" version="0.1" byte_order="LittleEndian">
  <UnstructuredGrid>
    <Piece NumberOfPoints="50" NumberOfCells="65">
      <Points>
        <DataArray type="Float32" NumberOfComponents="3" format="ascii">
          0 5 0 0 -5 0 15 0.2 0 15 -0.2 0 35 0.2 0 35 -0.2 0 2.14286 4.31429 0 4.28571 3.62857 0 6.42857 2.94286 0 8.57143 2.25714 0 10.7143 1.57143 0 12.8571 0.885714 0 17.8571 0.2 0 20.7143 0.2 0 23.5714 0.2 0 26.4286 0.2 0 29.2857 0.2 0 32.1429 0.2 0 32.1429 -0.2 0 29.2857 -0.2 0 26.4286 -0.2 0 23.5714 -0.2 0 20.7143 -0.2 0 17.8571 -0.2 0 12.8571 -0.885714 0 10.7143 -1.57143 0 8.57143 -2.25714 0 6.42857 -2.94286 0 4.28571 -3.62857 0 2.14286 -4.31429 0 0 -2.5 0 0 -6.16307e-12 0 0 2.5 0 3.95974 -5.7158e-13 0 13.9286 -3.66374e-15 0 6.61813 2.81487e-12 0 2.86365 2.0434 0 2.86365 -2.0434 0 9.43036 1.987e-12 0 11.3926 2.79508e-14 0 4.83116 1.72297 0 4.83116 -1.72297 0 1.90629 -3.21031e-12 0 33.5714 0 0 16.4286 -1.80625e-18 0 25 6.93889e-18 0 19.2857 -6.93889e-18 0 30.7143 0 0 22.1429 0 0 27.8571 0 0 
        </DataArray>
      </Points>
      <Cells>
        <DataArray type="Int32" Name="connectivity" format="ascii">
          8 9 35 26 27 35 8 35 40 27 41 35 30 42 37 32 36 42 33 40 35 33 35 41 29 30 37 6 36 32 30 31 42 31 32 42 0 6 32 30 29 1 26 35 38 9 38 35 6 7 36 28 29 37 7 40 36 33 41 37 33 36 40 28 37 41 9 10 38 25 26 38 33 42 36 33 37 42 11 34 24 24 25 39 10 11 39 25 38 39 10 39 38 11 24 39 27 28 41 7 8 40 2 34 11 3 24 34 2 3 34 2 44 12 3 23 44 4 17 43 5 43 18 12 46 13 13 48 14 14 45 15 15 49 16 16 47 17 18 47 19 19 49 20 20 45 21 21 48 22 22 46 23 2 3 44 4 43 5 12 44 23 12 23 46 13 46 22 13 22 48 14 21 45 14 48 21 15 45 20 15 20 49 16 19 47 16 49 19 17 18 43 17 47 18 
        </DataArray>
        <DataArray type="Int32" Name="offsets" format="ascii">
          3 6 9 12 15 18 21 24 27 30 33 36 39 42 45 48 51 54 57 60 63 66 69 72 75 78 81 84 87 90 93 96 99 102 105 108 111 114 117 120 123 126 129 132 135 138 141 144 147 150 153 156 159 162 165 168 171 174 177 180 183 186 189 192 195 
        </DataArray>
        <DataArray type="UInt8" Name="types" format="ascii">
          5 5 5 5 5 5 5 5 5 5 5 5 5 5 5 5 5 5 5 5 5 5 5 5 5 5 5 5 5 5 5 5 5 5 5 5 5 5 5 5 5 5 5 5 5 5 5 5 5 5 5 5 5 5 5 5 5 5 5 5 5 5 5 5 5 
        </DataArray>
      </Cells>
      <CellData>
        <DataArray type="Float32" Name="F0_Alpha_SG_co2liq_mod.xml" format="ascii">
1.72682e-10 1.72682e-10 1.72682e-10 1.72682e-10 1.69046e-10 1.69061e-10 1.72682e-10 1.72682e-10 1.69809e-10 1.6983e-10 1.6831e-10 1.68309e-10 1.67308e-10 1.67394e-10 1.72682e-10 1.72682e-10 1.7235e-10 1.72202e-10 1.72659e-10 1.72635e-10 1.72634e-10 1.72714e-10 1.72682e-10 1.72682e-10 1.72296e-10 1.72289e-10 1.72682e-10 1.72682e-10 1.72682e-10 1.72682e-10 1.72682e-10 1.72682e-10 1.72686e-10 1.72682e-10 1.72682e-10 1.72682e-10 1.72682e-10 1.72682e-10 1.72682e-10 1.72918e-10 1.72918e-10 1.72682e-10 1.72682e-10 1.72682e-10 1.72682e-10 1.72689e-10 1.72689e-10 1.72682e-10 1.72682e-10 1.72682e-10 1.72682e-10 1.72682e-10 1.7302e-10 1.72682e-10 1.72682e-10 1.72682e-10 1.72682e-10 1.72682e-10 1.72682e-10 1.72682e-10 1.72682e-10 1.72684e-10 1.72682e-10 1.72825e-10 1.72698e-10 
        </DataArray>
        <DataArray type="Float32" Name="F0_Density_SG_co2liq_mod.xml" format="ascii">
5897.13 5897.13 5897.12 5897.13 6141.36 6140.52 5897.12 5897.13 6090.57 6088.45 6260.74 6260.8 6315.79 6310.12 5897.13 5897.13 5917.45 5926.51 5898.56 5900.12 5900.18 5895.06 5897.13 5897.13 5920.35 5920.78 5897.13 5897.13 5897.13 5897.13 5897.13 5897.13 5896.84 5897.1 5897.13 5897.13 5897.13 5897.13 5897.13 5881.8 5881.8 5897.13 5897.13 5897.13 5897.13 5896.69 5896.67 5897.13 5897.13 5897.13 5897.13 5897.13 5872.63 5897.13 5897.13 5897.13 5897.13 5897.13 5897.13 5897.13 5897.13 5896.97 5897.12 5887.94 5896.09 
        </DataArray>
        <DataArray type="Float32" Name="F0_Temperature_SG_co2liq_mod.xml" format="ascii">
41.7807 41.7807 41.7806 41.7807 42.1991 42.1983 41.7807 41.7807 42.1441 42.1416 42.2982 42.2983 42.3336 42.3302 41.7807 41.7807 41.8399 41.8636 41.7852 41.79 41.7901 41.7741 41.7807 41.7807 41.8476 41.8488 41.7807 41.7807 41.7807 41.7807 41.7807 41.7807 41.7798 41.7806 41.7807 41.7807 41.7807 41.7807 41.7807 41.7292 41.7292 41.7807 41.7807 41.7807 41.7807 41.7793 41.7792 41.7807 41.7807 41.7807 41.7807 41.7807 41.6947 41.7807 41.7807 41.7807 41.7807 41.7807 41.7807 41.7807 41.7807 41.7802 41.7806 41.7506 41.7774 
        </DataArray>
        <DataArray type="Float32" Name="F0_Mass fraction_SG_co2liq_mod.xml" format="ascii">
9.59441e-09 9.59438e-09 9.59494e-09 9.5942e-09 4.59768e-09 4.60393e-09 9.59462e-09 9.59454e-09 5.13032e-09 5.16456e-09 3.30009e-09 3.29984e-09 3.11888e-09 3.14187e-09 9.5944e-09 9.5944e-09 8.84478e-09 8.54783e-09 9.53483e-09 9.47169e-09 9.46919e-09 9.68261e-09 9.5944e-09 9.5944e-09 8.7641e-09 8.75025e-09 9.5944e-09 9.5944e-09 9.5944e-09 9.5944e-09 9.5944e-09 9.5944e-09 9.60644e-09 9.5958e-09 9.5944e-09 9.5944e-09 9.5944e-09 9.5944e-09 9.5944e-09 1.03046e-08 1.03046e-08 9.5944e-09 9.5944e-09 9.5944e-09 9.59453e-09 9.6131e-09 9.61376e-09 9.59454e-09 9.5944e-09 9.5944e-09 9.5944e-09 9.5944e-09 1.09307e-08 9.5944e-09 9.5944e-09 9.5944e-09 9.5944e-09 9.5944e-09 9.5944e-09 9.5944e-09 9.59443e-09 9.60115e-09 9.59485e-09 1.00032e-08 9.63844e-09 
        </DataArray>
        <DataArray type="Float32" Name="F1_Alpha_SG_co2gas_mod.xml" format="ascii">
1 1 1 1 1 1 1 1 1 1 1 1 1 1 1 1 1 1 1 1 1 1 1 1 1 1 1 1 1 1 1 1 1 1 1 1 1 1 1 1 1 1 1 1 1 1 1 1 1 1 1 1 1 1 1 1 1 1 1 1 1 1 1 1 1 
        </DataArray>
        <DataArray type="Float32" Name="F1_Density_SG_co2gas_mod.xml" format="ascii">
106.138 106.138 106.132 106.14 225.803 225.486 106.135 106.136 201.592 200.211 319.307 319.333 338.803 336.193 106.138 106.138 115.308 119.394 106.813 107.538 107.567 105.154 106.138 106.138 116.39 116.578 106.138 106.138 106.138 106.138 106.138 106.138 106.002 106.122 106.138 106.138 106.138 106.138 106.138 98.7001 98.7001 106.138 106.138 106.138 106.136 105.928 105.92 106.136 106.138 106.138 106.138 106.138 92.9565 106.138 106.138 106.138 106.138 106.138 106.138 106.138 106.137 106.062 106.133 101.725 105.644 
        </DataArray>
        <DataArray type="Float32" Name="F1_Temperature_SG_co2gas_mod.xml" format="ascii">
466.385 466.385 466.384 466.386 438.781 438.7 466.385 466.385 443.769 444.794 379.06 379.063 386.484 386.463 466.385 466.385 469.658 470.481 466.572 466.793 466.798 466.132 466.385 466.385 470.87 470.936 466.385 466.385 466.385 466.385 466.385 466.385 466.35 466.381 466.385 466.385 466.385 466.385 466.385 464.434 464.434 466.385 466.385 466.385 466.385 466.33 466.328 466.385 466.385 466.385 466.385 466.385 468.704 466.385 466.385 466.385 466.385 466.385 466.385 466.385 466.385 466.365 466.384 465.215 466.258 
        </DataArray>
        <DataArray type="Float32" Name="F1_Mass fraction_SG_co2gas_mod.xml" format="ascii">
1 1 1 1 1 1 1 1 1 1 1 1 1 1 1 1 1 1 1 1 1 1 1 1 1 1 1 1 1 1 1 1 1 1 1 1 1 1 1 1 1 1 1 1 1 1 1 1 1 1 1 1 1 1 1 1 1 1 1 1 1 1 1 1 1 
        </DataArray>
        <DataArray type="Float32" Name="Density_Mixture" format="ascii">
106.138 106.138 106.132 106.14 225.803 225.486 106.135 106.136 201.592 200.211 319.307 319.333 338.803 336.193 106.138 106.138 115.308 119.394 106.813 107.538 107.567 105.154 106.138 106.138 116.39 116.578 106.138 106.138 106.138 106.138 106.138 106.138 106.002 106.122 106.138 106.138 106.138 106.138 106.138 98.7001 98.7001 106.138 106.138 106.138 106.136 105.928 105.92 106.136 106.138 106.138 106.138 106.138 92.9565 106.138 106.138 106.138 106.138 106.138 106.138 106.138 106.137 106.062 106.133 101.725 105.644 
        </DataArray>
        <DataArray type="Float32" Name="Pressure_Mixture" format="ascii">
6.27185e+06 6.27187e+06 6.27142e+06 6.27202e+06 1.34407e+07 1.34179e+07 6.27168e+06 6.27174e+06 1.20499e+07 1.1991e+07 1.66159e+07 1.66174e+07 1.80482e+07 1.79013e+07 6.27186e+06 6.27186e+06 6.94485e+06 7.23656e+06 6.32027e+06 6.37261e+06 6.37465e+06 6.20165e+06 6.27186e+06 6.27186e+06 7.03874e+06 7.05264e+06 6.27186e+06 6.27186e+06 6.27186e+06 6.27186e+06 6.27186e+06 6.27186e+06 6.26218e+06 6.27073e+06 6.27186e+06 6.27186e+06 6.27186e+06 6.27186e+06 6.27186e+06 5.74242e+06 5.74242e+06 6.27186e+06 6.27186e+06 6.27186e+06 6.27175e+06 6.25684e+06 6.2563e+06 6.27174e+06 6.27186e+06 6.27186e+06 6.27186e+06 6.27186e+06 5.41409e+06 6.27186e+06 6.27186e+06 6.27186e+06 6.27186e+06 6.27186e+06 6.27186e+06 6.27186e+06 6.27183e+06 6.26643e+06 6.27149e+06 5.95708e+06 6.23663e+06 
        </DataArray>
        <DataArray type="Float32" Name="Velocity_Mixture" NumberOfComponents="3" format="ascii">
-0.000266793 -1.84588e-06 0 0.000439434 3.48202e-05 0 -0.0105543 0.0118265 0 0.00341567 0.00618575 0 204.824 -17.2619 0 205.246 18.3806 0 -0.00461249 0.00332384 0 -0.00380077 -0.00181505 0 182.25 43.478 0 180.107 -36.5294 0 315.732 0.897046 0 315.716 -0.907323 0 294.46 -30.8337 0 288.406 49.7099 0 0 0 0 0 0 0 25.0231 0.689842 0 23.5105 8.42409 0 1.47461 -0.828207 0 3.44298 -1.40773 0 3.37076 1.417 0 -1.9297 -2.36086 0 0 0 0 0 0 0 28.9081 -6.82581 0 29.392 7.42054 0 0 0 0 0 0 0 0 0 0 0 0 0 0 0 0 0 0 0 -0.225454 -0.00868557 0 -0.077735 -0.026138 0 0 0 0 0 0 0 0 0 0 0 0 0 0 0 0 4.3835 -1.45218 0 4.38351 1.45219 0 0 0 0 0 0 0 0 0 0 0.000538466 -0.00119357 0 0.0871718 -0.110867 0 0.0994644 0.108009 0 0.000650957 0.00126081 0 0 0 0 0 0 0 0 0 0 0 0 0 30.9021 5.95851e-06 0 0 0 0 0 0 0 0 0 0 0 0 0 0 0 0 0 0 0 4.47785e-05 0 0 0.000193182 4.06905e-05 0 0.0489666 0.00993852 0 0.0190851 -0.000744676 0 3.61428 -0.000123161 0 2.09085 -0.0780504 0 
        </DataArray>
        <DataArray type="Float32" Name="gradRho" format="ascii">
0.0017399 0.000617636 0.00440421 0.0411215 62.3004 62.4276 0.552456 0.539836 57.5804 59.3506 64.9421 65.1753 32.7201 31.7779 5.8353e-05 2.92984e-05 29.6654 29.8674 2.72023 3.82688 3.50986 3.62357 9.16956e-07 1.63377e-06 40.1434 40.2816 0 6.1901e-10 5.99217e-11 5.8664e-08 5.20446e-09 0 0.313701 0.240727 0 0 0 0 0 0.943045 0.943055 0 4.5822e-09 3.1568e-06 0.000735902 0.0488287 0.0458529 0.000668273 2.77117e-06 3.8894e-09 0 0 0.828073 0 0 0 7.80944e-10 5.99791e-07 2.27511e-07 0.000110776 0.000237096 0.038261 0.0251563 1.66236 1.39848 
        </DataArray>
      </CellData>
    </Piece>
  </UnstructuredGrid>
</VTKFile>
