<?xml version="1.0"?>
<VTKFile type="UnstructuredGrid" version="0.1" byte_order="LittleEndian">
  <UnstructuredGrid>
    <Piece NumberOfPoints="50" NumberOfCells="65">
      <Points>
        <DataArray type="Float32" NumberOfComponents="3" format="ascii">
          0 5 0 0 -5 0 15 0.2 0 15 -0.2 0 35 0.2 0 35 -0.2 0 2.14286 4.31429 0 4.28571 3.62857 0 6.42857 2.94286 0 8.57143 2.25714 0 10.7143 1.57143 0 12.8571 0.885714 0 17.8571 0.2 0 20.7143 0.2 0 23.5714 0.2 0 26.4286 0.2 0 29.2857 0.2 0 32.1429 0.2 0 32.1429 -0.2 0 29.2857 -0.2 0 26.4286 -0.2 0 23.5714 -0.2 0 20.7143 -0.2 0 17.8571 -0.2 0 12.8571 -0.885714 0 10.7143 -1.57143 0 8.57143 -2.25714 0 6.42857 -2.94286 0 4.28571 -3.62857 0 2.14286 -4.31429 0 0 -2.5 0 0 -6.16307e-12 0 0 2.5 0 3.95974 -5.7158e-13 0 13.9286 -3.66374e-15 0 6.61813 2.81487e-12 0 2.86365 2.0434 0 2.86365 -2.0434 0 9.43036 1.987e-12 0 11.3926 2.79508e-14 0 4.83116 1.72297 0 4.83116 -1.72297 0 1.90629 -3.21031e-12 0 33.5714 0 0 16.4286 -1.80625e-18 0 25 6.93889e-18 0 19.2857 -6.93889e-18 0 30.7143 0 0 22.1429 0 0 27.8571 0 0 
        </DataArray>
      </Points>
      <Cells>
        <DataArray type="Int32" Name="connectivity" format="ascii">
          8 9 35 26 27 35 8 35 40 27 41 35 30 42 37 32 36 42 33 40 35 33 35 41 29 30 37 6 36 32 30 31 42 31 32 42 0 6 32 30 29 1 26 35 38 9 38 35 6 7 36 28 29 37 7 40 36 33 41 37 33 36 40 28 37 41 9 10 38 25 26 38 33 42 36 33 37 42 11 34 24 24 25 39 10 11 39 25 38 39 10 39 38 11 24 39 27 28 41 7 8 40 2 34 11 3 24 34 2 3 34 2 44 12 3 23 44 4 17 43 5 43 18 12 46 13 13 48 14 14 45 15 15 49 16 16 47 17 18 47 19 19 49 20 20 45 21 21 48 22 22 46 23 2 3 44 4 43 5 12 44 23 12 23 46 13 46 22 13 22 48 14 21 45 14 48 21 15 45 20 15 20 49 16 19 47 16 49 19 17 18 43 17 47 18 
        </DataArray>
        <DataArray type="Int32" Name="offsets" format="ascii">
          3 6 9 12 15 18 21 24 27 30 33 36 39 42 45 48 51 54 57 60 63 66 69 72 75 78 81 84 87 90 93 96 99 102 105 108 111 114 117 120 123 126 129 132 135 138 141 144 147 150 153 156 159 162 165 168 171 174 177 180 183 186 189 192 195 
        </DataArray>
        <DataArray type="UInt8" Name="types" format="ascii">
          5 5 5 5 5 5 5 5 5 5 5 5 5 5 5 5 5 5 5 5 5 5 5 5 5 5 5 5 5 5 5 5 5 5 5 5 5 5 5 5 5 5 5 5 5 5 5 5 5 5 5 5 5 5 5 5 5 5 5 5 5 5 5 5 5 
        </DataArray>
      </Cells>
      <CellData>
        <DataArray type="Float32" Name="F0_Alpha_SG_co2liq_mod.xml" format="ascii">
1.72682e-10 1.72682e-10 1.72682e-10 1.72682e-10 1.70469e-10 1.70473e-10 1.72682e-10 1.72682e-10 1.70992e-10 1.71038e-10 1.68834e-10 1.68832e-10 1.68341e-10 1.68373e-10 1.72682e-10 1.72682e-10 1.72604e-10 1.72584e-10 1.72684e-10 1.72679e-10 1.7268e-10 1.72691e-10 1.72682e-10 1.72682e-10 1.72613e-10 1.7261e-10 1.72682e-10 1.72682e-10 1.72682e-10 1.72682e-10 1.72682e-10 1.72682e-10 1.72683e-10 1.72683e-10 1.72682e-10 1.72682e-10 1.72682e-10 1.72682e-10 1.72682e-10 1.72851e-10 1.72851e-10 1.72682e-10 1.72682e-10 1.72682e-10 1.72682e-10 1.72684e-10 1.72684e-10 1.72682e-10 1.72682e-10 1.72682e-10 1.72682e-10 1.72682e-10 1.72968e-10 1.72682e-10 1.72682e-10 1.72682e-10 1.72682e-10 1.72682e-10 1.72682e-10 1.72682e-10 1.72682e-10 1.72683e-10 1.72682e-10 1.72764e-10 1.72689e-10 
        </DataArray>
        <DataArray type="Float32" Name="F0_Density_SG_co2liq_mod.xml" format="ascii">
5897.13 5897.13 5897.13 5897.13 6044.29 6044.04 5897.13 5897.13 6009.9 6006.84 6210.62 6210.71 6234.11 6231.82 5897.13 5897.13 5901.9 5903.19 5896.99 5897.29 5897.28 5896.58 5897.13 5897.13 5901.24 5901.38 5897.13 5897.13 5897.13 5897.13 5897.13 5897.13 5897.1 5897.08 5897.13 5897.13 5897.13 5897.13 5897.13 5886.18 5886.18 5897.13 5897.13 5897.13 5897.13 5896.99 5896.98 5897.13 5897.13 5897.13 5897.13 5897.13 5876.66 5897.13 5897.13 5897.13 5897.13 5897.13 5897.13 5897.13 5897.13 5897.09 5897.13 5891.85 5896.7 
        </DataArray>
        <DataArray type="Float32" Name="F0_Temperature_SG_co2liq_mod.xml" format="ascii">
41.7807 41.7807 41.7807 41.7807 42.0845 42.0841 41.7807 41.7807 42.0324 42.0274 42.2609 42.2609 42.2791 42.2773 41.7807 41.7807 41.7954 41.7993 41.7802 41.7812 41.7811 41.779 41.7807 41.7807 41.7934 41.7938 41.7807 41.7807 41.7807 41.7807 41.7807 41.7807 41.7806 41.7805 41.7807 41.7807 41.7807 41.7807 41.7807 41.7446 41.7446 41.7807 41.7807 41.7807 41.7807 41.7802 41.7802 41.7807 41.7807 41.7807 41.7807 41.7807 41.7103 41.7807 41.7807 41.7807 41.7807 41.7807 41.7807 41.7807 41.7807 41.7806 41.7807 41.7637 41.7793 
        </DataArray>
        <DataArray type="Float32" Name="F0_Mass fraction_SG_co2liq_mod.xml" format="ascii">
9.5944e-09 9.5944e-09 9.59449e-09 9.59437e-09 5.78486e-09 5.78801e-09 9.59451e-09 9.59448e-09 6.35592e-09 6.41344e-09 3.64545e-09 3.64499e-09 3.57201e-09 3.58561e-09 9.5944e-09 9.5944e-09 9.40598e-09 9.35581e-09 9.60044e-09 9.5878e-09 9.58822e-09 9.61748e-09 9.5944e-09 9.5944e-09 9.43912e-09 9.43376e-09 9.5944e-09 9.5944e-09 9.5944e-09 9.5944e-09 9.5944e-09 9.5944e-09 9.59583e-09 9.59642e-09 9.5944e-09 9.5944e-09 9.5944e-09 9.5944e-09 9.5944e-09 1.00872e-08 1.00872e-08 9.5944e-09 9.5944e-09 9.5944e-09 9.59441e-09 9.60023e-09 9.60074e-09 9.59442e-09 9.5944e-09 9.5944e-09 9.5944e-09 9.5944e-09 1.06739e-08 9.5944e-09 9.5944e-09 9.5944e-09 9.5944e-09 9.5944e-09 9.5944e-09 9.5944e-09 9.5944e-09 9.59587e-09 9.59447e-09 9.8236e-09 9.61268e-09 
        </DataArray>
        <DataArray type="Float32" Name="F1_Alpha_SG_co2gas_mod.xml" format="ascii">
1 1 1 1 1 1 1 1 1 1 1 1 1 1 1 1 1 1 1 1 1 1 1 1 1 1 1 1 1 1 1 1 1 1 1 1 1 1 1 1 1 1 1 1 1 1 1 1 1 1 1 1 1 1 1 1 1 1 1 1 1 1 1 1 1 
        </DataArray>
        <DataArray type="Float32" Name="F1_Density_SG_co2gas_mod.xml" format="ascii">
106.138 106.138 106.137 106.138 178.114 178.014 106.137 106.137 161.683 160.195 287.636 287.674 293.8 292.634 106.138 106.138 108.303 108.894 106.07 106.212 106.207 105.878 106.138 106.138 107.916 107.978 106.138 106.138 106.138 106.138 106.138 106.138 106.122 106.115 106.138 106.138 106.138 106.138 106.138 100.863 100.863 106.138 106.138 106.138 106.138 106.072 106.066 106.138 106.138 106.138 106.138 106.138 95.2298 106.138 106.138 106.138 106.138 106.138 106.138 106.138 106.138 106.121 106.137 103.618 105.932 
        </DataArray>
        <DataArray type="Float32" Name="F1_Temperature_SG_co2gas_mod.xml" format="ascii">
466.385 466.385 466.385 466.385 451.898 451.879 466.385 466.385 455.573 455.954 389.068 389.072 395.513 395.665 466.385 466.385 467.327 467.519 466.368 466.406 466.404 466.318 466.385 466.385 467.574 467.607 466.385 466.385 466.385 466.385 466.385 466.385 466.381 466.379 466.385 466.385 466.385 466.385 466.385 465.007 465.007 466.385 466.385 466.385 466.385 466.368 466.367 466.385 466.385 466.385 466.385 466.385 468.094 466.385 466.385 466.385 466.385 466.385 466.385 466.385 466.385 466.381 466.385 465.721 466.332 
        </DataArray>
        <DataArray type="Float32" Name="F1_Mass fraction_SG_co2gas_mod.xml" format="ascii">
1 1 1 1 1 1 1 1 1 1 1 1 1 1 1 1 1 1 1 1 1 1 1 1 1 1 1 1 1 1 1 1 1 1 1 1 1 1 1 1 1 1 1 1 1 1 1 1 1 1 1 1 1 1 1 1 1 1 1 1 1 1 1 1 1 
        </DataArray>
        <DataArray type="Float32" Name="Density_Mixture" format="ascii">
106.138 106.138 106.137 106.138 178.114 178.014 106.137 106.137 161.683 160.195 287.636 287.674 293.8 292.634 106.138 106.138 108.303 108.894 106.07 106.212 106.207 105.878 106.138 106.138 107.916 107.978 106.138 106.138 106.138 106.138 106.138 106.138 106.122 106.115 106.138 106.138 106.138 106.138 106.138 100.863 100.863 106.138 106.138 106.138 106.138 106.072 106.066 106.138 106.138 106.138 106.138 106.138 95.2298 106.138 106.138 106.138 106.138 106.138 106.138 106.138 106.138 106.121 106.137 103.618 105.932 
        </DataArray>
        <DataArray type="Float32" Name="Pressure_Mixture" format="ascii">
6.27186e+06 6.27186e+06 6.27179e+06 6.27188e+06 1.07528e+07 1.07457e+07 6.27177e+06 6.2718e+06 9.76502e+06 9.67579e+06 1.52962e+07 1.52985e+07 1.59168e+07 1.58565e+07 6.27186e+06 6.27186e+06 6.43261e+06 6.4756e+06 6.267e+06 6.27719e+06 6.27684e+06 6.25334e+06 6.27186e+06 6.27186e+06 6.41029e+06 6.41503e+06 6.27186e+06 6.27186e+06 6.27186e+06 6.27186e+06 6.27186e+06 6.27186e+06 6.27071e+06 6.27023e+06 6.27186e+06 6.27186e+06 6.27186e+06 6.27186e+06 6.27186e+06 5.89607e+06 5.89607e+06 6.27186e+06 6.27186e+06 6.27186e+06 6.27185e+06 6.26717e+06 6.26676e+06 6.27184e+06 6.27186e+06 6.27186e+06 6.27186e+06 6.27186e+06 5.55976e+06 6.27186e+06 6.27186e+06 6.27186e+06 6.27186e+06 6.27186e+06 6.27186e+06 6.27186e+06 6.27186e+06 6.27067e+06 6.2718e+06 6.09197e+06 6.25718e+06 
        </DataArray>
        <DataArray type="Float32" Name="Velocity_Mixture" NumberOfComponents="3" format="ascii">
0 0 0 2.40971e-05 0 0 -0.00167279 0.00188277 0 0.000429891 0.000798933 0 149.225 -19.6663 0 149.423 20.2915 0 -0.00258442 0.0013794 0 -0.00194712 -0.000956422 0 123.651 35.7414 0 122.738 -30.6535 0 295.826 1.32737 0 295.795 -1.34998 0 277.823 -22.8913 0 271.378 42.4195 0 0 0 0 0 0 0 5.06572 -0.044861 0 5.18097 0.987296 0 -0.121738 0.129574 0 0.180661 -0.110556 0 0.169899 0.128315 0 -0.502912 -0.463421 0 0 0 0 0 0 0 5.38689 -1.63053 0 5.55259 1.76421 0 0 0 0 0 0 0 0 0 0 0 0 0 0 0 0 0 0 0 -0.0291129 0.00281343 0 -0.0556093 -0.0113372 0 0 0 0 0 0 0 0 0 0 0 0 0 0 0 0 2.79385 -1.49633 0 2.79385 1.49633 0 0 0 0 0 0 0 0 0 0 5.09659e-05 -0.000177874 0 0.024959 -0.049208 0 0.0299292 0.0502554 0 6.81158e-05 0.000202768 0 0 0 0 0 0 0 0 0 0 0 0 0 23.7558 0 0 0 0 0 0 0 0 0 0 0 0 0 0 0 0 0 0 0 0 0 0 0 6.70523e-06 0 0 0.0100533 0.0023467 0 0.00277398 -0.00011046 0 1.74096 -1.14404e-05 0 0.799699 -0.0331833 0 
        </DataArray>
        <DataArray type="Float32" Name="gradRho" format="ascii">
0.000287532 8.63457e-05 0.00673159 0.00477752 54.6172 54.7656 0.0272331 0.0288522 47.4461 47.6092 76.0681 76.1568 31.5428 30.9161 3.36779e-06 9.98139e-07 17.5757 18.0185 0.650214 0.67143 0.618582 0.783322 1.28701e-08 2.18483e-08 24.5912 24.6317 0 0 0 1.43633e-10 0 0 0.0870346 0.0187702 0 0 0 0 0 0.9566 0.956601 0 7.27424e-11 1.56513e-07 0.000141363 0.0270407 0.0245373 0.000126701 1.39883e-07 7.27424e-11 0 0 0.812227 0 0 0 0 2.17813e-08 5.76169e-09 8.09077e-06 2.80345e-05 0.0109218 0.00558648 1.07477 0.823183 
        </DataArray>
      </CellData>
    </Piece>
  </UnstructuredGrid>
</VTKFile>
