<?xml version="1.0"?>
<VTKFile type="UnstructuredGrid" version="0.1" byte_order="LittleEndian">
  <UnstructuredGrid>
    <Piece NumberOfPoints="50" NumberOfCells="65">
      <Points>
        <DataArray type="Float32" NumberOfComponents="3" format="ascii">
          0 5 0 0 -5 0 15 0.2 0 15 -0.2 0 35 0.2 0 35 -0.2 0 2.14286 4.31429 0 4.28571 3.62857 0 6.42857 2.94286 0 8.57143 2.25714 0 10.7143 1.57143 0 12.8571 0.885714 0 17.8571 0.2 0 20.7143 0.2 0 23.5714 0.2 0 26.4286 0.2 0 29.2857 0.2 0 32.1429 0.2 0 32.1429 -0.2 0 29.2857 -0.2 0 26.4286 -0.2 0 23.5714 -0.2 0 20.7143 -0.2 0 17.8571 -0.2 0 12.8571 -0.885714 0 10.7143 -1.57143 0 8.57143 -2.25714 0 6.42857 -2.94286 0 4.28571 -3.62857 0 2.14286 -4.31429 0 0 -2.5 0 0 -6.16307e-12 0 0 2.5 0 3.95974 -5.7158e-13 0 13.9286 -3.66374e-15 0 6.61813 2.81487e-12 0 2.86365 2.0434 0 2.86365 -2.0434 0 9.43036 1.987e-12 0 11.3926 2.79508e-14 0 4.83116 1.72297 0 4.83116 -1.72297 0 1.90629 -3.21031e-12 0 33.5714 0 0 16.4286 -1.80625e-18 0 25 6.93889e-18 0 19.2857 -6.93889e-18 0 30.7143 0 0 22.1429 0 0 27.8571 0 0 
        </DataArray>
      </Points>
      <Cells>
        <DataArray type="Int32" Name="connectivity" format="ascii">
          8 9 35 26 27 35 8 35 40 27 41 35 30 42 37 32 36 42 33 40 35 33 35 41 29 30 37 6 36 32 30 31 42 31 32 42 0 6 32 30 29 1 26 35 38 9 38 35 6 7 36 28 29 37 7 40 36 33 41 37 33 36 40 28 37 41 9 10 38 25 26 38 33 42 36 33 37 42 11 34 24 24 25 39 10 11 39 25 38 39 10 39 38 11 24 39 27 28 41 7 8 40 2 34 11 3 24 34 2 3 34 2 44 12 3 23 44 4 17 43 5 43 18 12 46 13 13 48 14 14 45 15 15 49 16 16 47 17 18 47 19 19 49 20 20 45 21 21 48 22 22 46 23 2 3 44 4 43 5 12 44 23 12 23 46 13 46 22 13 22 48 14 21 45 14 48 21 15 45 20 15 20 49 16 19 47 16 49 19 17 18 43 17 47 18 
        </DataArray>
        <DataArray type="Int32" Name="offsets" format="ascii">
          3 6 9 12 15 18 21 24 27 30 33 36 39 42 45 48 51 54 57 60 63 66 69 72 75 78 81 84 87 90 93 96 99 102 105 108 111 114 117 120 123 126 129 132 135 138 141 144 147 150 153 156 159 162 165 168 171 174 177 180 183 186 189 192 195 
        </DataArray>
        <DataArray type="UInt8" Name="types" format="ascii">
          5 5 5 5 5 5 5 5 5 5 5 5 5 5 5 5 5 5 5 5 5 5 5 5 5 5 5 5 5 5 5 5 5 5 5 5 5 5 5 5 5 5 5 5 5 5 5 5 5 5 5 5 5 5 5 5 5 5 5 5 5 5 5 5 5 
        </DataArray>
      </Cells>
      <CellData>
        <DataArray type="Float32" Name="F0_Alpha_SG_co2liq_mod.xml" format="ascii">
1.72401e-10 1.72454e-10 1.71324e-10 1.717e-10 1.65207e-10 1.65127e-10 1.68433e-10 1.6823e-10 1.64069e-10 1.63913e-10 1.67753e-10 1.67754e-10 1.62389e-10 1.62688e-10 1.7268e-10 1.72645e-10 1.6332e-10 1.63004e-10 1.63993e-10 1.64848e-10 1.6513e-10 1.63572e-10 1.72682e-10 1.72682e-10 1.65067e-10 1.65107e-10 1.72682e-10 1.72682e-10 1.72682e-10 1.72682e-10 1.72683e-10 1.72682e-10 1.67791e-10 1.68038e-10 1.72682e-10 1.72682e-10 1.72682e-10 1.72682e-10 1.72682e-10 1.73294e-10 1.73294e-10 1.72682e-10 1.72682e-10 1.72684e-10 1.72707e-10 1.7287e-10 1.7287e-10 1.72707e-10 1.72684e-10 1.72682e-10 1.72682e-10 1.72682e-10 1.73334e-10 1.72682e-10 1.72682e-10 1.72682e-10 1.72682e-10 1.72683e-10 1.72682e-10 1.72685e-10 1.72698e-10 1.72822e-10 1.72718e-10 1.73213e-10 1.72918e-10 
        </DataArray>
        <DataArray type="Float32" Name="F0_Density_SG_co2liq_mod.xml" format="ascii">
5914.55 5911.32 5976.78 5954.68 6484.51 6489.58 6146.36 6158.02 6561.23 6569.59 6346.28 6346.25 6700.1 6680.02 5897.24 5899.49 6535.28 6556.87 6426.36 6404.43 6388.15 6449.66 5897.11 5897.13 6439.1 6436.56 5897.13 5897.13 5897.12 5897.12 5897.05 5897.13 6171.05 6156.19 5897.13 5897.13 5897.13 5897.13 5897.13 5855.36 5855.36 5897.13 5897.13 5897.02 5895.51 5884.97 5884.99 5895.51 5897.02 5897.13 5897.13 5897.13 5848.59 5897.13 5897.13 5897.13 5897.13 5897.07 5897.12 5896.95 5896.08 5888.1 5894.82 5861.44 5881.76 
        </DataArray>
        <DataArray type="Float32" Name="F0_Temperature_SG_co2liq_mod.xml" format="ascii">
41.8319 41.8229 41.974 41.9293 42.4151 42.417 42.2041 42.2152 42.4421 42.4448 42.3511 42.351 42.4797 42.4751 41.781 41.788 42.4335 42.4407 42.3908 42.3807 42.3729 42.401 41.7806 41.7807 42.3965 42.3954 41.7807 41.7807 41.7806 41.7807 41.7804 41.7807 42.2272 42.2135 41.7807 41.7807 41.7807 41.7807 41.7807 41.6199 41.6199 41.7807 41.7807 41.7803 41.7756 41.7404 41.7405 41.7755 41.7803 41.7807 41.7807 41.7807 41.5859 41.7807 41.7807 41.7807 41.7807 41.7805 41.7806 41.7801 41.7774 41.7512 41.7733 41.648 41.729 
        </DataArray>
        <DataArray type="Float32" Name="F0_Mass fraction_SG_co2liq_mod.xml" format="ascii">
8.9349e-09 9.04675e-09 7.32007e-09 7.82952e-09 2.48268e-09 2.4712e-09 4.94677e-09 4.84571e-09 2.30901e-09 2.297e-09 2.76417e-09 2.76424e-09 2.00723e-09 2.0378e-09 9.58981e-09 9.49673e-09 2.58848e-09 2.53232e-09 3.20794e-09 3.12139e-09 3.17443e-09 3.13848e-09 9.59515e-09 9.59443e-09 2.79006e-09 2.79746e-09 9.5944e-09 9.5944e-09 9.5948e-09 9.5947e-09 9.59787e-09 9.59442e-09 4.90131e-09 5.04211e-09 9.5944e-09 9.5944e-09 9.5944e-09 9.5944e-09 9.5944e-09 1.19606e-08 1.19604e-08 9.5944e-09 9.59458e-09 9.59904e-09 9.66306e-09 1.01454e-08 1.01447e-08 9.66316e-09 9.59908e-09 9.59458e-09 9.5944e-09 9.5944e-09 1.27709e-08 9.5944e-09 9.5944e-09 9.59441e-09 9.59449e-09 9.59699e-09 9.59475e-09 9.60214e-09 9.63874e-09 9.99553e-09 9.69309e-09 1.15119e-08 1.0309e-08 
        </DataArray>
        <DataArray type="Float32" Name="F1_Alpha_SG_co2gas_mod.xml" format="ascii">
1 1 1 1 1 1 1 1 1 1 1 1 1 1 1 1 1 1 1 1 1 1 1 1 1 1 1 1 1 1 1 1 1 1 1 1 1 1 1 1 1 1 1 1 1 1 1 1 1 1 1 1 1 1 1 1 1 1 1 1 1 1 1 1 1 
        </DataArray>
        <DataArray type="Float32" Name="F1_Density_SG_co2gas_mod.xml" format="ascii">
114.123 112.685 139.885 130.586 431.504 433.638 209.278 213.79 466.212 468.804 385.147 385.136 542.052 533.302 106.189 107.249 412.344 422.063 328.52 338.233 332.304 336.145 106.129 106.137 380.953 379.888 106.138 106.138 106.133 106.134 106.099 106.138 211.26 205.167 106.138 106.138 106.138 106.138 106.138 84.837 84.8381 106.138 106.136 106.085 105.37 100.275 100.283 105.369 106.085 106.136 106.138 106.138 79.3805 106.138 106.138 106.138 106.137 106.109 106.134 106.051 105.641 101.805 105.038 88.1933 98.6573 
        </DataArray>
        <DataArray type="Float32" Name="F1_Temperature_SG_co2gas_mod.xml" format="ascii">
468.825 468.315 478.262 476.84 372.445 372.65 477.898 478 373.284 374.303 354.1 354.099 365.063 364.618 466.399 466.684 411.156 410.547 458.222 433.656 432.748 459.986 466.383 466.385 401.023 400.977 466.385 466.385 466.384 466.384 466.375 466.385 495.192 496.42 466.385 466.385 466.385 466.385 466.385 460.588 460.589 466.385 466.385 466.372 466.183 464.827 464.826 466.182 466.371 466.385 466.385 466.385 468.731 466.385 466.385 466.385 466.385 466.378 466.384 466.362 466.254 465.231 466.1 461.445 464.53 
        </DataArray>
        <DataArray type="Float32" Name="F1_Mass fraction_SG_co2gas_mod.xml" format="ascii">
1 1 1 1 1 1 1 1 1 1 1 1 1 1 1 1 1 1 1 1 1 1 1 1 1 1 1 1 1 1 1 1 1 1 1 1 1 1 1 1 1 1 1 1 1 1 1 1 1 1 1 1 1 1 1 1 1 1 1 1 1 1 1 1 1 
        </DataArray>
        <DataArray type="Float32" Name="Density_Mixture" format="ascii">
114.123 112.685 139.885 130.586 431.504 433.638 209.278 213.79 466.212 468.804 385.147 385.136 542.052 533.302 106.189 107.249 412.344 422.063 328.52 338.233 332.304 336.145 106.129 106.137 380.953 379.888 106.138 106.138 106.133 106.134 106.099 106.138 211.26 205.167 106.138 106.138 106.138 106.138 106.138 84.837 84.8381 106.138 106.136 106.085 105.37 100.275 100.283 105.369 106.085 106.136 106.138 106.138 79.3805 106.138 106.138 106.138 106.137 106.109 106.134 106.051 105.641 101.805 105.038 88.1933 98.6573 
        </DataArray>
        <DataArray type="Float32" Name="Pressure_Mixture" format="ascii">
6.85062e+06 6.74485e+06 8.78796e+06 8.11802e+06 2.23529e+07 2.24807e+07 1.3576e+07 1.38909e+07 2.42787e+07 2.44877e+07 1.88346e+07 1.8834e+07 2.7728e+07 2.72316e+07 6.27556e+06 6.35143e+06 2.36292e+07 2.41698e+07 2.08814e+07 2.03235e+07 1.9908e+07 2.14724e+07 6.27126e+06 6.27183e+06 2.12047e+07 2.11404e+07 6.27186e+06 6.27185e+06 6.27154e+06 6.27162e+06 6.26907e+06 6.27184e+06 1.42412e+07 1.38414e+07 6.27186e+06 6.27186e+06 6.27186e+06 6.27186e+06 6.27186e+06 4.76424e+06 4.76432e+06 6.27185e+06 6.27171e+06 6.26812e+06 6.21701e+06 5.85391e+06 5.85439e+06 6.21692e+06 6.26809e+06 6.27171e+06 6.27185e+06 6.27186e+06 4.49429e+06 6.27186e+06 6.27186e+06 6.27185e+06 6.27179e+06 6.26977e+06 6.27158e+06 6.26563e+06 6.23634e+06 5.96266e+06 6.19335e+06 4.9987e+06 5.74091e+06 
        </DataArray>
        <DataArray type="Float32" Name="Velocity_Mixture" NumberOfComponents="3" format="ascii">
21.9206 -0.841828 0 12.8381 3.07774 0 73.8317 -6.47377 0 57.1238 -8.35477 0 321.933 14.2525 0 322.413 -17.1987 0 195.994 -7.73993 0 201.424 9.53803 0 309.389 44.7596 0 309.216 -44.7151 0 343.481 0.0931102 0 343.484 -0.0907722 0 289.079 -42.8292 0 290.625 45.5195 0 0.0371017 -0.528421 0 2.55486 -1.32027 0 287.849 -61.8095 0 290.395 76.2585 0 270.983 -51.3119 0 272.246 22.4004 0 275.737 -13.6662 0 263.467 75.6347 0 -0.21715 -0.185232 0 0.00702529 -0.00697306 0 293.884 -15.9996 0 293.827 17.5703 0 7.01091e-08 0 0 -7.82258e-05 6.3194e-05 0 -0.0104951 -0.00291791 0 -0.000908659 0.0120346 0 -0.0791728 0.0655318 0 -0.000353334 0.000529195 0 164.809 54.8105 0 187.053 -27.8229 0 0 0 0 0 0 0 0 0 0 0 0 0 0 0 0 23.2387 -0.817375 0 23.2414 0.821778 0 0 -2.01257e-05 0 0.000924619 -0.000755894 0 0.0265413 -0.0147909 0 0.433767 -0.146851 0 4.03965 -0.628582 0 4.06939 0.617729 0 0.452603 0.140791 0 0.0282855 0.0142944 0 0.00101272 0.000741012 0 0 2.21416e-05 0 0 0 0 64.2954 0.00537376 0 0 0 0 0 0 0 0.000415416 0 0 0.000742388 9.45264e-05 0 0.026133 0.00264209 0 0.0170112 -0.000489161 0 0.391385 -0.00980143 0 0.531063 0.0362593 0 6.11162 0.142671 0 4.92173 -0.100454 0 38.8338 -0.00379703 0 30.5316 -0.145291 0 
        </DataArray>
        <DataArray type="Float32" Name="gradRho" format="ascii">
8.54226 6.22038 27.4223 28.7401 21.4413 21.8817 61.6772 65.1171 37.4732 42.6185 32.1967 33.6847 17.2931 15.8391 1.63012 2.3984 35.8873 32.5015 73.8118 55.6523 57.3152 75.1189 0.386074 0.0183127 33.6784 31.0048 9.68649e-05 0.0012253 0.0135143 0.0177701 0.0112632 0.00189074 55.0539 52.0835 2.56665e-06 2.89087e-06 4.11773e-07 1.92724e-07 1.60158e-07 0.834226 0.8346 1.14534e-05 0.000301756 0.00516637 0.0462739 0.228047 0.228459 0.0460725 0.00505115 0.000288852 9.38132e-06 6.98295e-08 0.786762 5.51519e-06 8.43779e-06 0.000307141 0.000403791 0.011086 0.00902546 0.146778 0.169509 1.2782 1.16342 3.98492 3.81826 
        </DataArray>
      </CellData>
    </Piece>
  </UnstructuredGrid>
</VTKFile>
