<?xml version="1.0"?>
<VTKFile type="UnstructuredGrid" version="0.1" byte_order="LittleEndian">
  <UnstructuredGrid>
    <Piece NumberOfPoints="50" NumberOfCells="65">
      <Points>
        <DataArray type="Float32" NumberOfComponents="3" format="ascii">
          0 5 0 0 -5 0 15 0.2 0 15 -0.2 0 35 0.2 0 35 -0.2 0 2.14286 4.31429 0 4.28571 3.62857 0 6.42857 2.94286 0 8.57143 2.25714 0 10.7143 1.57143 0 12.8571 0.885714 0 17.8571 0.2 0 20.7143 0.2 0 23.5714 0.2 0 26.4286 0.2 0 29.2857 0.2 0 32.1429 0.2 0 32.1429 -0.2 0 29.2857 -0.2 0 26.4286 -0.2 0 23.5714 -0.2 0 20.7143 -0.2 0 17.8571 -0.2 0 12.8571 -0.885714 0 10.7143 -1.57143 0 8.57143 -2.25714 0 6.42857 -2.94286 0 4.28571 -3.62857 0 2.14286 -4.31429 0 0 -2.5 0 0 -6.16307e-12 0 0 2.5 0 3.95974 -5.7158e-13 0 13.9286 -3.66374e-15 0 6.61813 2.81487e-12 0 2.86365 2.0434 0 2.86365 -2.0434 0 9.43036 1.987e-12 0 11.3926 2.79508e-14 0 4.83116 1.72297 0 4.83116 -1.72297 0 1.90629 -3.21031e-12 0 33.5714 0 0 16.4286 -1.80625e-18 0 25 6.93889e-18 0 19.2857 -6.93889e-18 0 30.7143 0 0 22.1429 0 0 27.8571 0 0 
        </DataArray>
      </Points>
      <Cells>
        <DataArray type="Int32" Name="connectivity" format="ascii">
          8 9 35 26 27 35 8 35 40 27 41 35 30 42 37 32 36 42 33 40 35 33 35 41 29 30 37 6 36 32 30 31 42 31 32 42 0 6 32 30 29 1 26 35 38 9 38 35 6 7 36 28 29 37 7 40 36 33 41 37 33 36 40 28 37 41 9 10 38 25 26 38 33 42 36 33 37 42 11 34 24 24 25 39 10 11 39 25 38 39 10 39 38 11 24 39 27 28 41 7 8 40 2 34 11 3 24 34 2 3 34 2 44 12 3 23 44 4 17 43 5 43 18 12 46 13 13 48 14 14 45 15 15 49 16 16 47 17 18 47 19 19 49 20 20 45 21 21 48 22 22 46 23 2 3 44 4 43 5 12 44 23 12 23 46 13 46 22 13 22 48 14 21 45 14 48 21 15 45 20 15 20 49 16 19 47 16 49 19 17 18 43 17 47 18 
        </DataArray>
        <DataArray type="Int32" Name="offsets" format="ascii">
          3 6 9 12 15 18 21 24 27 30 33 36 39 42 45 48 51 54 57 60 63 66 69 72 75 78 81 84 87 90 93 96 99 102 105 108 111 114 117 120 123 126 129 132 135 138 141 144 147 150 153 156 159 162 165 168 171 174 177 180 183 186 189 192 195 
        </DataArray>
        <DataArray type="UInt8" Name="types" format="ascii">
          5 5 5 5 5 5 5 5 5 5 5 5 5 5 5 5 5 5 5 5 5 5 5 5 5 5 5 5 5 5 5 5 5 5 5 5 5 5 5 5 5 5 5 5 5 5 5 5 5 5 5 5 5 5 5 5 5 5 5 5 5 5 5 5 5 
        </DataArray>
      </Cells>
      <CellData>
        <DataArray type="Float32" Name="F0_Alpha_SG_co2liq_mod.xml" format="ascii">
1.67754e-10 1.67038e-10 1.63876e-10 1.64311e-10 1.65024e-10 1.64928e-10 1.63581e-10 1.63271e-10 1.6318e-10 1.63152e-10 1.67784e-10 1.67785e-10 1.6044e-10 1.6074e-10 1.71638e-10 1.7117e-10 1.622e-10 1.62492e-10 1.61658e-10 1.62266e-10 1.62896e-10 1.61156e-10 1.72554e-10 1.72711e-10 1.63643e-10 1.63625e-10 1.72682e-10 1.72683e-10 1.72688e-10 1.72691e-10 1.72685e-10 1.72684e-10 1.61668e-10 1.61602e-10 1.72682e-10 1.72682e-10 1.72682e-10 1.72682e-10 1.72682e-10 1.7339e-10 1.7339e-10 1.72682e-10 1.72683e-10 1.72694e-10 1.72767e-10 1.7302e-10 1.7302e-10 1.72767e-10 1.72694e-10 1.72683e-10 1.72682e-10 1.72682e-10 1.73417e-10 1.72682e-10 1.72682e-10 1.72682e-10 1.72683e-10 1.7269e-10 1.72684e-10 1.72699e-10 1.72744e-10 1.72958e-10 1.72791e-10 1.73327e-10 1.73077e-10 
        </DataArray>
        <DataArray type="Float32" Name="F0_Density_SG_co2liq_mod.xml" format="ascii">
6176.41 6214.78 6397.16 6375.43 6524.75 6530.13 6484.21 6504.26 6648.4 6650.12 6347.86 6347.84 6841.86 6821.14 5959.3 5986.19 6672.03 6655.83 6656.8 6629.53 6594.66 6684.44 5905.21 5895.25 6572.3 6572.5 5897.13 5897.09 5896.74 5896.57 5896.96 5897.03 6576.43 6577.44 5897.13 5897.13 5897.13 5897.13 5897.13 5847.95 5847.95 5897.13 5897.07 5896.38 5891.68 5874.91 5874.91 5891.69 5896.38 5897.07 5897.13 5897.13 5842.16 5897.13 5897.13 5897.12 5897.09 5896.63 5897.03 5896.07 5893.15 5879.16 5890.11 5852.93 5870.9 
        </DataArray>
        <DataArray type="Float32" Name="F0_Temperature_SG_co2liq_mod.xml" format="ascii">
42.232 42.2642 42.3773 42.3665 42.4299 42.4318 42.415 42.4225 42.4672 42.4677 42.3519 42.3519 42.5066 42.5033 41.9391 41.9915 42.4731 42.4691 42.4694 42.4622 42.4524 42.4761 41.8053 41.7747 42.4456 42.4457 41.7807 41.7806 41.7794 41.7789 41.7801 41.7804 42.4469 42.4472 41.7807 41.7807 41.7807 41.7807 41.7807 41.5825 41.5825 41.7807 41.7805 41.7783 41.7631 41.7036 41.7036 41.7632 41.7783 41.7805 41.7807 41.7807 41.5502 41.7807 41.7807 41.7807 41.7806 41.7791 41.7804 41.7773 41.7679 41.7196 41.7579 41.6081 41.6879 
        </DataArray>
        <DataArray type="Float32" Name="F0_Mass fraction_SG_co2liq_mod.xml" format="ascii">
4.81216e-09 4.55036e-09 3.55392e-09 3.61955e-09 2.31543e-09 2.30677e-09 2.85885e-09 2.79865e-09 2.0855e-09 2.0831e-09 2.74627e-09 2.74634e-09 1.80249e-09 1.82761e-09 7.6862e-09 7.11299e-09 2.13542e-09 2.15577e-09 2.2853e-09 2.30448e-09 2.35698e-09 2.24766e-09 9.27058e-09 9.67462e-09 2.33088e-09 2.33291e-09 9.59432e-09 9.59595e-09 9.61093e-09 9.6181e-09 9.60159e-09 9.59854e-09 2.71967e-09 2.72957e-09 9.59433e-09 9.59438e-09 9.59439e-09 9.5944e-09 9.59441e-09 1.25796e-08 1.25795e-08 9.59454e-09 9.59705e-09 9.62623e-09 9.83144e-09 1.06724e-08 1.06725e-08 9.83089e-09 9.62627e-09 9.59706e-09 9.59454e-09 9.5944e-09 1.3384e-08 9.59441e-09 9.59448e-09 9.59465e-09 9.59598e-09 9.61549e-09 9.59856e-09 9.63922e-09 9.76585e-09 1.04406e-08 9.90304e-09 1.21496e-08 1.09097e-08 
        </DataArray>
        <DataArray type="Float32" Name="F1_Alpha_SG_co2gas_mod.xml" format="ascii">
1 1 1 1 1 1 1 1 1 1 1 1 1 1 1 1 1 1 1 1 1 1 1 1 1 1 1 1 1 1 1 1 1 1 1 1 1 1 1 1 1 1 1 1 1 1 1 1 1 1 1 1 1 1 1 1 1 1 1 1 1 1 1 1 1 
        </DataArray>
        <DataArray type="Float32" Name="F1_Density_SG_co2gas_mod.xml" format="ascii">
215.313 228.138 294.981 289.416 465.027 466.888 371.02 379.452 520.206 520.847 387.825 387.815 608.994 599.928 133.075 144.054 506.787 501.687 470.89 466.807 455.771 479.269 109.914 105.242 461.417 460.982 106.139 106.12 105.952 105.872 106.057 106.091 390.93 389.413 106.138 106.138 106.138 106.138 106.138 80.6048 80.6052 106.136 106.108 105.781 103.534 95.244 95.2429 103.54 105.78 106.108 106.136 106.138 75.6968 106.138 106.137 106.135 106.12 105.901 106.091 105.635 104.242 97.3933 102.772 83.4983 93.1389 
        </DataArray>
        <DataArray type="Float32" Name="F1_Temperature_SG_co2gas_mod.xml" format="ascii">
490.477 493.876 492.895 489.102 360.65 361.21 433.022 432.6 363.389 363.506 352.38 352.379 364.481 364.146 475.27 477.89 380.997 379.339 404.504 398.019 394.497 407.302 467.415 466.152 381.308 381.746 466.386 466.381 466.336 466.315 466.366 466.373 451.886 454.094 466.386 466.385 466.385 466.385 466.385 459.381 459.382 466.385 466.377 466.291 465.696 463.459 463.454 465.697 466.291 466.377 466.385 466.385 467.155 466.385 466.385 466.385 466.381 466.323 466.373 466.254 465.883 464.027 465.517 460.044 463.121 
        </DataArray>
        <DataArray type="Float32" Name="F1_Mass fraction_SG_co2gas_mod.xml" format="ascii">
1 1 1 1 1 1 1 1 1 1 1 1 1 1 1 1 1 1 1 1 1 1 1 1 1 1 1 1 1 1 1 1 1 1 1 1 1 1 1 1 1 1 1 1 1 1 1 1 1 1 1 1 1 1 1 1 1 1 1 1 1 1 1 1 1 
        </DataArray>
        <DataArray type="Float32" Name="Density_Mixture" format="ascii">
215.313 228.138 294.981 289.416 465.027 466.888 371.02 379.452 520.206 520.847 387.825 387.815 608.994 599.928 133.075 144.054 506.787 501.687 470.89 466.807 455.771 479.269 109.914 105.242 461.417 460.982 106.139 106.12 105.952 105.872 106.057 106.091 390.93 389.413 106.138 106.138 106.138 106.138 106.138 80.6048 80.6052 106.136 106.108 105.781 103.534 95.244 95.2429 103.54 105.78 106.108 106.136 106.138 75.6968 106.138 106.137 106.135 106.12 105.901 106.091 105.635 104.242 97.3933 102.772 83.4983 93.1389 
        </DataArray>
        <DataArray type="Float32" Name="Pressure_Mixture" format="ascii">
1.43846e+07 1.54063e+07 2.01381e+07 1.95827e+07 2.33652e+07 2.35e+07 2.23454e+07 2.28502e+07 2.64487e+07 2.64913e+07 1.88753e+07 1.88747e+07 3.12104e+07 3.07036e+07 8.25946e+06 9.06857e+06 2.7034e+07 2.66328e+07 2.6657e+07 2.59804e+07 2.51131e+07 2.7341e+07 6.54288e+06 6.2079e+06 2.45552e+07 2.45604e+07 6.27192e+06 6.27061e+06 6.25858e+06 6.25283e+06 6.26611e+06 6.26852e+06 2.46585e+07 2.46836e+07 6.27191e+06 6.27187e+06 6.27186e+06 6.27185e+06 6.27185e+06 4.46829e+06 4.46833e+06 6.27174e+06 6.26972e+06 6.24633e+06 6.08594e+06 5.49689e+06 5.49674e+06 6.08635e+06 6.24629e+06 6.26971e+06 6.27174e+06 6.27186e+06 4.22736e+06 6.27185e+06 6.2718e+06 6.27166e+06 6.27058e+06 6.25492e+06 6.26851e+06 6.23597e+06 6.13641e+06 5.64893e+06 6.03198e+06 4.6685e+06 5.35125e+06 
        </DataArray>
        <DataArray type="Float32" Name="Velocity_Mixture" NumberOfComponents="3" format="ascii">
204.34 -30.7586 0 191.606 56.0775 0 256.572 -41.8639 0 260.702 45.7773 0 320.268 31.1089 0 319.99 -32.6832 0 294.518 -17.1172 0 295.627 27.9676 0 302.217 52.0347 0 302.397 -52.6477 0 343.798 0.0544938 0 343.801 -0.0515393 0 269.61 -42.9421 0 270.945 46.3442 0 51.8286 13.3781 0 87.7557 -23.4914 0 292.583 -72.3202 0 296.83 76.8902 0 295.511 -73.6788 0 290.62 46.9906 0 299.044 -41.2535 0 290.027 86.4245 0 7.72061 -0.59301 0 -1.80232 0.469443 0 306.276 -17.9596 0 305.605 17.0174 0 0.00202246 -0.00108617 0 -0.0157738 0.0127362 0 -0.432189 -0.00355578 0 -0.53227 0.0544127 0 -0.141643 0.330218 0 -0.0872325 0.110754 0 288.293 88.0957 0 289.421 -74.8982 0 0.00120934 0.000137224 0 0.000324951 -5.40133e-05 0 5.3374e-05 -0.000291283 0 0 -2.02965e-05 0 0 2.18101e-05 0 37.8134 -0.561211 0 37.8178 0.562886 0 0.000772204 -0.000496246 0 0.0159355 -0.00727992 0 0.208824 -0.0636952 0 1.77526 -0.301029 0 9.78852 -0.674004 0 9.77712 0.662186 0 1.79175 0.291981 0 0.216898 0.0609268 0 0.0168161 0.00702337 0 0.000835895 0.000483936 0 0 0 0 73.7804 0.00217408 0 0.000456621 0 0 0.000727648 7.21796e-05 0 0.0124075 -0.000319667 0 0.0176549 0.00143198 0 0.272752 0.0155999 0 0.209288 -0.00481636 0 2.21298 -0.0424917 0 2.68694 0.0611405 0 16.4702 0.0386382 0 13.8353 -0.0738049 0 59.8473 -0.00183475 0 46.6833 -0.0424164 0 
        </DataArray>
        <DataArray type="Float32" Name="gradRho" format="ascii">
34.9206 33.9755 51.177 47.6568 34.4368 34.403 49.7021 52.9694 40.572 41.6563 53.6193 54.9169 20.8107 18.8216 33.3837 31.668 12.2321 10.6781 44.6715 30.3618 32.8295 43.5181 12.4291 9.28657 3.69542 0.890837 0.0207027 0.0901028 0.0411675 0.348824 1.41926 0.0760438 46.6655 43.1878 0.000216427 0.000290715 0.000340585 1.04088e-05 8.52824e-06 0.765042 0.765174 0.000183593 0.00244911 0.0201693 0.106826 0.306904 0.306924 0.107259 0.0200971 0.00240801 0.000177671 3.86314e-05 0.70764 0.000267136 0.000334062 0.00536948 0.00641835 0.0781215 0.0681621 0.50178 0.555597 2.08927 1.95612 3.6523 3.5765 
        </DataArray>
      </CellData>
    </Piece>
  </UnstructuredGrid>
</VTKFile>
