<?xml version="1.0"?>
<VTKFile type="UnstructuredGrid" version="0.1" byte_order="LittleEndian">
  <UnstructuredGrid>
    <Piece NumberOfPoints="50" NumberOfCells="65">
      <Points>
        <DataArray type="Float32" NumberOfComponents="3" format="ascii">
          0 5 0 0 -5 0 15 0.2 0 15 -0.2 0 35 0.2 0 35 -0.2 0 2.14286 4.31429 0 4.28571 3.62857 0 6.42857 2.94286 0 8.57143 2.25714 0 10.7143 1.57143 0 12.8571 0.885714 0 17.8571 0.2 0 20.7143 0.2 0 23.5714 0.2 0 26.4286 0.2 0 29.2857 0.2 0 32.1429 0.2 0 32.1429 -0.2 0 29.2857 -0.2 0 26.4286 -0.2 0 23.5714 -0.2 0 20.7143 -0.2 0 17.8571 -0.2 0 12.8571 -0.885714 0 10.7143 -1.57143 0 8.57143 -2.25714 0 6.42857 -2.94286 0 4.28571 -3.62857 0 2.14286 -4.31429 0 0 -2.5 0 0 -6.16307e-12 0 0 2.5 0 3.95974 -5.7158e-13 0 13.9286 -3.66374e-15 0 6.61813 2.81487e-12 0 2.86365 2.0434 0 2.86365 -2.0434 0 9.43036 1.987e-12 0 11.3926 2.79508e-14 0 4.83116 1.72297 0 4.83116 -1.72297 0 1.90629 -3.21031e-12 0 33.5714 0 0 16.4286 -1.80625e-18 0 25 6.93889e-18 0 19.2857 -6.93889e-18 0 30.7143 0 0 22.1429 0 0 27.8571 0 0 
        </DataArray>
      </Points>
      <Cells>
        <DataArray type="Int32" Name="connectivity" format="ascii">
          8 9 35 26 27 35 8 35 40 27 41 35 30 42 37 32 36 42 33 40 35 33 35 41 29 30 37 6 36 32 30 31 42 31 32 42 0 6 32 30 29 1 26 35 38 9 38 35 6 7 36 28 29 37 7 40 36 33 41 37 33 36 40 28 37 41 9 10 38 25 26 38 33 42 36 33 37 42 11 34 24 24 25 39 10 11 39 25 38 39 10 39 38 11 24 39 27 28 41 7 8 40 2 34 11 3 24 34 2 3 34 2 44 12 3 23 44 4 17 43 5 43 18 12 46 13 13 48 14 14 45 15 15 49 16 16 47 17 18 47 19 19 49 20 20 45 21 21 48 22 22 46 23 2 3 44 4 43 5 12 44 23 12 23 46 13 46 22 13 22 48 14 21 45 14 48 21 15 45 20 15 20 49 16 19 47 16 49 19 17 18 43 17 47 18 
        </DataArray>
        <DataArray type="Int32" Name="offsets" format="ascii">
          3 6 9 12 15 18 21 24 27 30 33 36 39 42 45 48 51 54 57 60 63 66 69 72 75 78 81 84 87 90 93 96 99 102 105 108 111 114 117 120 123 126 129 132 135 138 141 144 147 150 153 156 159 162 165 168 171 174 177 180 183 186 189 192 195 
        </DataArray>
        <DataArray type="UInt8" Name="types" format="ascii">
          5 5 5 5 5 5 5 5 5 5 5 5 5 5 5 5 5 5 5 5 5 5 5 5 5 5 5 5 5 5 5 5 5 5 5 5 5 5 5 5 5 5 5 5 5 5 5 5 5 5 5 5 5 5 5 5 5 5 5 5 5 5 5 5 5 
        </DataArray>
      </Cells>
      <CellData>
        <DataArray type="Float32" Name="F0_Alpha_SG_co2liq_mod.xml" format="ascii">
1.72682e-10 1.72682e-10 1.72683e-10 1.72682e-10 1.67371e-10 1.67419e-10 1.7268e-10 1.72679e-10 1.68229e-10 1.68115e-10 1.67951e-10 1.6795e-10 1.66232e-10 1.66396e-10 1.72682e-10 1.72682e-10 1.71592e-10 1.71076e-10 1.72525e-10 1.72395e-10 1.72378e-10 1.72711e-10 1.72682e-10 1.72682e-10 1.71375e-10 1.71363e-10 1.72682e-10 1.72682e-10 1.72682e-10 1.72682e-10 1.72682e-10 1.72682e-10 1.72694e-10 1.72682e-10 1.72682e-10 1.72682e-10 1.72682e-10 1.72682e-10 1.72682e-10 1.72998e-10 1.72998e-10 1.72682e-10 1.72682e-10 1.72682e-10 1.72682e-10 1.72701e-10 1.72701e-10 1.72682e-10 1.72682e-10 1.72682e-10 1.72682e-10 1.72682e-10 1.73083e-10 1.72682e-10 1.72682e-10 1.72682e-10 1.72682e-10 1.72682e-10 1.72682e-10 1.72682e-10 1.72682e-10 1.72691e-10 1.72683e-10 1.72903e-10 1.72717e-10 
        </DataArray>
        <DataArray type="Float32" Name="F0_Density_SG_co2liq_mod.xml" format="ascii">
5897.13 5897.13 5897.09 5897.12 6263.25 6260.47 5897.26 5897.3 6202.38 6207.43 6300.27 6300.29 6401.87 6391.21 5897.13 5897.13 5963.59 5994.21 5906.97 5914.96 5915.99 5895.25 5897.13 5897.13 5975.03 5975.73 5897.13 5897.13 5897.13 5897.13 5897.13 5897.13 5896.35 5897.13 5897.13 5897.13 5897.13 5897.13 5897.13 5876.4 5876.4 5897.13 5897.13 5897.13 5897.11 5895.93 5895.92 5897.11 5897.13 5897.13 5897.13 5897.13 5867.81 5897.13 5897.13 5897.13 5897.13 5897.13 5897.13 5897.13 5897.12 5896.56 5897.08 5882.79 5894.9 
        </DataArray>
        <DataArray type="Float32" Name="F0_Temperature_SG_co2liq_mod.xml" format="ascii">
41.7807 41.7807 41.7805 41.7806 42.2999 42.298 41.7811 41.7812 42.2542 42.2583 42.3242 42.3242 42.3795 42.3744 41.7807 41.7807 41.948 42.0059 41.8105 41.8331 41.8359 41.7747 41.7807 41.7807 41.9707 41.972 41.7807 41.7807 41.7807 41.7807 41.7807 41.7807 41.7782 41.7807 41.7807 41.7807 41.7807 41.7807 41.7807 41.7093 41.7093 41.7807 41.7807 41.7807 41.7806 41.7769 41.7769 41.7806 41.7807 41.7807 41.7807 41.7807 41.6753 41.7807 41.7807 41.7807 41.7807 41.7807 41.7807 41.7807 41.7807 41.7789 41.7805 41.7327 41.7736 
        </DataArray>
        <DataArray type="Float32" Name="F0_Mass fraction_SG_co2liq_mod.xml" format="ascii">
9.59449e-09 9.59436e-09 9.59609e-09 9.59481e-09 3.63382e-09 3.64639e-09 9.58874e-09 9.58746e-09 4.04271e-09 4.02713e-09 3.05696e-09 3.05687e-09 2.75561e-09 2.78786e-09 9.5944e-09 9.59441e-09 7.53536e-09 6.88918e-09 9.20459e-09 8.92073e-09 8.88473e-09 9.6747e-09 9.5944e-09 9.5944e-09 7.32022e-09 7.30549e-09 9.5944e-09 9.5944e-09 9.5944e-09 9.5944e-09 9.5944e-09 9.5944e-09 9.62743e-09 9.59428e-09 9.5944e-09 9.5944e-09 9.5944e-09 9.5944e-09 9.5944e-09 1.05906e-08 1.05906e-08 9.5944e-09 9.5944e-09 9.59441e-09 9.59524e-09 9.64506e-09 9.6456e-09 9.59529e-09 9.59441e-09 9.5944e-09 9.5944e-09 9.5944e-09 1.12542e-08 9.5944e-09 9.5944e-09 9.5944e-09 9.5944e-09 9.5944e-09 9.5944e-09 9.59442e-09 9.59468e-09 9.6185e-09 9.59661e-09 1.02534e-08 9.68956e-09 
        </DataArray>
        <DataArray type="Float32" Name="F1_Alpha_SG_co2gas_mod.xml" format="ascii">
1 1 1 1 1 1 1 1 1 1 1 1 1 1 1 1 1 1 1 1 1 1 1 1 1 1 1 1 1 1 1 1 1 1 1 1 1 1 1 1 1 1 1 1 1 1 1 1 1 1 1 1 1 1 1 1 1 1 1 1 1 1 1 1 1 
        </DataArray>
        <DataArray type="Float32" Name="F1_Density_SG_co2gas_mod.xml" format="ascii">
106.137 106.138 106.119 106.133 288.479 287.441 106.202 106.216 258.099 259.133 346.139 346.15 386.194 381.466 106.138 106.138 135.8 148.852 110.717 114.307 114.78 105.241 106.138 106.138 139.883 140.171 106.138 106.138 106.138 106.138 106.138 106.138 105.767 106.139 106.138 106.138 106.138 106.138 106.138 95.9918 95.9918 106.138 106.138 106.138 106.128 105.57 105.564 106.128 106.138 106.138 106.138 106.138 90.2438 106.138 106.138 106.138 106.138 106.138 106.138 106.138 106.135 105.867 106.113 99.2015 105.077 
        </DataArray>
        <DataArray type="Float32" Name="F1_Temperature_SG_co2gas_mod.xml" format="ascii">
466.385 466.385 466.38 466.384 421.141 420.915 466.402 466.406 427.729 429.603 370.255 370.256 378.633 378.395 466.385 466.385 472.383 473.505 467.68 468.859 468.961 466.163 466.385 466.385 475.679 475.725 466.385 466.385 466.385 466.385 466.385 466.385 466.288 466.386 466.385 466.385 466.385 466.385 466.385 463.705 463.705 466.385 466.385 466.385 466.383 466.236 466.234 466.383 466.385 466.385 466.385 466.385 469.245 466.385 466.385 466.385 466.385 466.385 466.385 466.385 466.385 466.314 466.379 464.533 466.116 
        </DataArray>
        <DataArray type="Float32" Name="F1_Mass fraction_SG_co2gas_mod.xml" format="ascii">
1 1 1 1 1 1 1 1 1 1 1 1 1 1 1 1 1 1 1 1 1 1 1 1 1 1 1 1 1 1 1 1 1 1 1 1 1 1 1 1 1 1 1 1 1 1 1 1 1 1 1 1 1 1 1 1 1 1 1 1 1 1 1 1 1 
        </DataArray>
        <DataArray type="Float32" Name="Density_Mixture" format="ascii">
106.137 106.138 106.119 106.133 288.479 287.441 106.202 106.216 258.099 259.133 346.139 346.15 386.194 381.466 106.138 106.138 135.8 148.852 110.717 114.307 114.78 105.241 106.138 106.138 139.883 140.171 106.138 106.138 106.138 106.138 106.138 106.138 105.767 106.139 106.138 106.138 106.138 106.138 106.138 95.9918 95.9918 106.138 106.138 106.138 106.128 105.57 105.564 106.128 106.138 106.138 106.138 106.138 90.2438 106.138 106.138 106.138 106.138 106.138 106.138 106.138 106.135 105.867 106.113 99.2015 105.077 
        </DataArray>
        <DataArray type="Float32" Name="Pressure_Mixture" format="ascii">
6.27179e+06 6.27189e+06 6.2705e+06 6.27153e+06 1.66815e+07 1.66089e+07 6.27642e+06 6.27745e+06 1.50773e+07 1.52115e+07 1.76459e+07 1.76466e+07 2.02582e+07 1.99862e+07 6.27186e+06 6.27185e+06 8.39002e+06 9.3057e+06 6.60138e+06 6.86371e+06 6.8974e+06 6.208e+06 6.27186e+06 6.27186e+06 8.73557e+06 8.75636e+06 6.27186e+06 6.27186e+06 6.27186e+06 6.27186e+06 6.27186e+06 6.27186e+06 6.24537e+06 6.27195e+06 6.27186e+06 6.27186e+06 6.27186e+06 6.27186e+06 6.27186e+06 5.55042e+06 5.55042e+06 6.27186e+06 6.27186e+06 6.27185e+06 6.27118e+06 6.23131e+06 6.23088e+06 6.27114e+06 6.27185e+06 6.27186e+06 6.27186e+06 6.27186e+06 5.2373e+06 6.27186e+06 6.27186e+06 6.27186e+06 6.27186e+06 6.27186e+06 6.27186e+06 6.27184e+06 6.27163e+06 6.25251e+06 6.27008e+06 5.77751e+06 6.19621e+06 
        </DataArray>
        <DataArray type="Float32" Name="Velocity_Mixture" NumberOfComponents="3" format="ascii">
-0.00260014 3.03326e-06 0 0.000839274 0.000191148 0 -0.0304223 0.0363726 0 -0.00695945 -0.00741659 0 254.495 -10.3422 0 255.263 12.0474 0 0.149501 -0.0571921 0 0.179882 0.0771551 0 239.703 46.2826 0 236.33 -38.7837 0 329.486 0.510795 0 329.481 -0.513187 0 303.836 -37.1471 0 299.427 52.3275 0 7.9875e-05 7.33814e-05 0 -0.000152095 0.000117418 0 74.7431 -3.15865 0 71.6665 28.0277 0 10.9337 -3.76869 0 21.066 -5.96416 0 20.7716 5.57133 0 -2.01508 -6.54083 0 0 0 0 0 0 0 85.098 -15.2681 0 85.9397 16.5271 0 0 0 0 0 0 0 0 0 0 0 0 0 0 0 0 0 0 0 -0.548058 -0.16539 0 -0.210298 -0.135901 0 0 0 0 0 0 0 0 0 0 0 0 0 0 0 0 6.65381 -1.37892 0 6.65344 1.37932 0 0 0 0 0 0 0 6.73474e-06 -4.6907e-05 0 0.00387972 -0.00569601 0 0.260166 -0.206118 0 0.285915 0.197544 0 0.00444293 0.00571525 0 1.23584e-05 5.08646e-05 0 0 0 0 0 0 0 0 0 0 38.8701 0.000102546 0 0 0 0 0 0 0 0 0 0 0 0 0 0 0 0 0 0 0 0.000753597 -2.41713e-05 0 0.00200284 0.00038704 0 0.197334 0.0331615 0 0.101534 -0.00361902 0 7.05279 -0.00158059 0 4.77407 -0.151572 0 
        </DataArray>
        <DataArray type="Float32" Name="gradRho" format="ascii">
0.0053334 0.00139273 0.0162453 0.126433 64.4741 64.4684 3.32056 3.13497 64.3869 70.4218 40.0468 40.7732 29.9976 29.1256 0.000135675 0.00029472 45.531 44.5414 8.6697 12.4281 11.552 11.5288 2.48271e-05 1.08738e-05 58.3662 58.8951 0 2.21337e-08 3.19961e-08 4.06856e-07 7.76143e-07 0 0.23618 1.60453 0 0 0 0 0 0.91868 0.918686 3.16748e-10 1.09948e-07 3.0572e-05 0.00280593 0.0762169 0.0742043 0.00260381 2.6581e-05 9.33502e-08 3.16748e-10 0 0.828702 0 0 1.0401e-08 2.5153e-08 9.91802e-06 4.33913e-06 0.00103373 0.0016744 0.114882 0.0874911 2.36488 2.10351 
        </DataArray>
      </CellData>
    </Piece>
  </UnstructuredGrid>
</VTKFile>
