<?xml version="1.0"?>
<VTKFile type="UnstructuredGrid" version="0.1" byte_order="LittleEndian">
  <UnstructuredGrid>
    <Piece NumberOfPoints="50" NumberOfCells="65">
      <Points>
        <DataArray type="Float32" NumberOfComponents="3" format="ascii">
          0 5 0 0 -5 0 15 0.2 0 15 -0.2 0 35 0.2 0 35 -0.2 0 2.14286 4.31429 0 4.28571 3.62857 0 6.42857 2.94286 0 8.57143 2.25714 0 10.7143 1.57143 0 12.8571 0.885714 0 17.8571 0.2 0 20.7143 0.2 0 23.5714 0.2 0 26.4286 0.2 0 29.2857 0.2 0 32.1429 0.2 0 32.1429 -0.2 0 29.2857 -0.2 0 26.4286 -0.2 0 23.5714 -0.2 0 20.7143 -0.2 0 17.8571 -0.2 0 12.8571 -0.885714 0 10.7143 -1.57143 0 8.57143 -2.25714 0 6.42857 -2.94286 0 4.28571 -3.62857 0 2.14286 -4.31429 0 0 -2.5 0 0 -6.16307e-12 0 0 2.5 0 3.95974 -5.7158e-13 0 13.9286 -3.66374e-15 0 6.61813 2.81487e-12 0 2.86365 2.0434 0 2.86365 -2.0434 0 9.43036 1.987e-12 0 11.3926 2.79508e-14 0 4.83116 1.72297 0 4.83116 -1.72297 0 1.90629 -3.21031e-12 0 33.5714 0 0 16.4286 -1.80625e-18 0 25 6.93889e-18 0 19.2857 -6.93889e-18 0 30.7143 0 0 22.1429 0 0 27.8571 0 0 
        </DataArray>
      </Points>
      <Cells>
        <DataArray type="Int32" Name="connectivity" format="ascii">
          8 9 35 26 27 35 8 35 40 27 41 35 30 42 37 32 36 42 33 40 35 33 35 41 29 30 37 6 36 32 30 31 42 31 32 42 0 6 32 30 29 1 26 35 38 9 38 35 6 7 36 28 29 37 7 40 36 33 41 37 33 36 40 28 37 41 9 10 38 25 26 38 33 42 36 33 37 42 11 34 24 24 25 39 10 11 39 25 38 39 10 39 38 11 24 39 27 28 41 7 8 40 2 34 11 3 24 34 2 3 34 2 44 12 3 23 44 4 17 43 5 43 18 12 46 13 13 48 14 14 45 15 15 49 16 16 47 17 18 47 19 19 49 20 20 45 21 21 48 22 22 46 23 2 3 44 4 43 5 12 44 23 12 23 46 13 46 22 13 22 48 14 21 45 14 48 21 15 45 20 15 20 49 16 19 47 16 49 19 17 18 43 17 47 18 
        </DataArray>
        <DataArray type="Int32" Name="offsets" format="ascii">
          3 6 9 12 15 18 21 24 27 30 33 36 39 42 45 48 51 54 57 60 63 66 69 72 75 78 81 84 87 90 93 96 99 102 105 108 111 114 117 120 123 126 129 132 135 138 141 144 147 150 153 156 159 162 165 168 171 174 177 180 183 186 189 192 195 
        </DataArray>
        <DataArray type="UInt8" Name="types" format="ascii">
          5 5 5 5 5 5 5 5 5 5 5 5 5 5 5 5 5 5 5 5 5 5 5 5 5 5 5 5 5 5 5 5 5 5 5 5 5 5 5 5 5 5 5 5 5 5 5 5 5 5 5 5 5 5 5 5 5 5 5 5 5 5 5 5 5 
        </DataArray>
      </Cells>
      <CellData>
        <DataArray type="Float32" Name="F0_Alpha_SG_co2liq_mod.xml" format="ascii">
1.72682e-10 1.72682e-10 1.72682e-10 1.72683e-10 1.66417e-10 1.66517e-10 1.72637e-10 1.72635e-10 1.66924e-10 1.6664e-10 1.67799e-10 1.67799e-10 1.65383e-10 1.65611e-10 1.72682e-10 1.72682e-10 1.70216e-10 1.69239e-10 1.72129e-10 1.71757e-10 1.71693e-10 1.72473e-10 1.72682e-10 1.72682e-10 1.69787e-10 1.69779e-10 1.72682e-10 1.72682e-10 1.72682e-10 1.72682e-10 1.72682e-10 1.72682e-10 1.72691e-10 1.7267e-10 1.72682e-10 1.72682e-10 1.72682e-10 1.72682e-10 1.72682e-10 1.73068e-10 1.73068e-10 1.72682e-10 1.72682e-10 1.72682e-10 1.72683e-10 1.72718e-10 1.72718e-10 1.72683e-10 1.72682e-10 1.72682e-10 1.72682e-10 1.72682e-10 1.73139e-10 1.72682e-10 1.72682e-10 1.72682e-10 1.72682e-10 1.72682e-10 1.72682e-10 1.72682e-10 1.72682e-10 1.72702e-10 1.72684e-10 1.72973e-10 1.72741e-10 
        </DataArray>
        <DataArray type="Float32" Name="F0_Density_SG_co2liq_mod.xml" format="ascii">
5897.13 5897.13 5897.14 5897.07 6347.7 6341.96 5899.98 5900.07 6300.72 6315.54 6321.39 6321.42 6469.79 6454.97 5897.13 5897.13 6046.97 6104.04 5931.11 5952.77 5956.58 5909.74 5897.13 5897.13 6066.89 6067.46 5897.13 5897.13 5897.13 5897.13 5897.13 5897.13 5896.55 5897.87 5897.13 5897.13 5897.13 5897.13 5897.13 5871.65 5871.65 5897.13 5897.13 5897.13 5897.06 5894.8 5894.8 5897.06 5897.13 5897.13 5897.13 5897.13 5863.53 5897.13 5897.13 5897.13 5897.13 5897.13 5897.13 5897.13 5897.1 5895.83 5896.98 5878.14 5893.36 
        </DataArray>
        <DataArray type="Float32" Name="F0_Temperature_SG_co2liq_mod.xml" format="ascii">
41.7807 41.7807 41.7807 41.7805 42.3518 42.3487 41.7895 41.7898 42.3244 42.3335 42.3369 42.3369 42.4093 42.4032 41.7807 41.7807 42.0882 42.1597 41.8751 41.9252 41.9334 41.8184 41.7807 41.7807 42.1149 42.1157 41.7807 41.7807 41.7807 41.7807 41.7807 41.7807 41.7788 41.783 41.7807 41.7807 41.7807 41.7807 41.7807 41.6909 41.6909 41.7807 41.7807 41.7807 41.7805 41.7733 41.7733 41.7804 41.7807 41.7807 41.7807 41.7807 41.6572 41.7807 41.7807 41.7807 41.7807 41.7807 41.7807 41.7807 41.7806 41.7766 41.7802 41.7158 41.7686 
        </DataArray>
        <DataArray type="Float32" Name="F0_Mass fraction_SG_co2liq_mod.xml" format="ascii">
9.5945e-09 9.5944e-09 9.59397e-09 9.59684e-09 3.11878e-09 3.13768e-09 9.4772e-09 9.47325e-09 3.39286e-09 3.34546e-09 2.93111e-09 2.93102e-09 2.52824e-09 2.56532e-09 9.5944e-09 9.59442e-09 5.98175e-09 5.29107e-09 8.40105e-09 7.8284e-09 7.73465e-09 9.12298e-09 9.5944e-09 9.5944e-09 5.81403e-09 5.80472e-09 9.5944e-09 9.5944e-09 9.5944e-09 9.5944e-09 9.5944e-09 9.5944e-09 9.61886e-09 9.56366e-09 9.5944e-09 9.5944e-09 9.5944e-09 9.5944e-09 9.5944e-09 1.08613e-08 1.08612e-08 9.5944e-09 9.5944e-09 9.59444e-09 9.59737e-09 9.69357e-09 9.69389e-09 9.59744e-09 9.59444e-09 9.5944e-09 9.5944e-09 9.5944e-09 1.1557e-08 9.5944e-09 9.5944e-09 9.5944e-09 9.5944e-09 9.59441e-09 9.5944e-09 9.5945e-09 9.59562e-09 9.64961e-09 9.60083e-09 1.04949e-08 9.75713e-09 
        </DataArray>
        <DataArray type="Float32" Name="F1_Alpha_SG_co2gas_mod.xml" format="ascii">
1 1 1 1 1 1 1 1 1 1 1 1 1 1 1 1 1 1 1 1 1 1 1 1 1 1 1 1 1 1 1 1 1 1 1 1 1 1 1 1 1 1 1 1 1 1 1 1 1 1 1 1 1 1 1 1 1 1 1 1 1 1 1 1 1 
        </DataArray>
        <DataArray type="Float32" Name="F1_Density_SG_co2gas_mod.xml" format="ascii">
106.137 106.138 106.143 106.11 338.712 336.568 107.474 107.52 309.987 314.583 361.885 361.897 423.217 416.717 106.138 106.138 172.072 195.243 121.523 130.606 132.223 111.726 106.138 106.138 177.172 177.464 106.138 106.138 106.138 106.138 106.138 106.138 105.863 106.485 106.138 106.138 106.138 106.138 106.138 93.5607 93.5615 106.138 106.138 106.137 106.104 105.033 105.029 106.103 106.137 106.138 106.138 106.138 87.8437 106.138 106.138 106.138 106.138 106.138 106.138 106.137 106.124 105.52 106.065 96.881 104.336 
        </DataArray>
        <DataArray type="Float32" Name="F1_Temperature_SG_co2gas_mod.xml" format="ascii">
466.385 466.385 466.387 466.378 403.394 402.928 466.765 466.778 413.702 416.099 364.599 364.6 373.67 373.282 466.385 466.385 470.827 471.364 470.576 473.663 473.977 469.116 466.385 466.385 479.185 479.021 466.385 466.385 466.385 466.385 466.385 466.385 466.313 466.483 466.385 466.385 466.385 466.385 466.385 463.04 463.04 466.385 466.385 466.385 466.377 466.094 466.093 466.376 466.385 466.385 466.385 466.385 469.512 466.385 466.385 466.385 466.385 466.385 466.385 466.385 466.382 466.222 466.366 463.897 465.932 
        </DataArray>
        <DataArray type="Float32" Name="F1_Mass fraction_SG_co2gas_mod.xml" format="ascii">
1 1 1 1 1 1 1 1 1 1 1 1 1 1 1 1 1 1 1 1 1 1 1 1 1 1 1 1 1 1 1 1 1 1 1 1 1 1 1 1 1 1 1 1 1 1 1 1 1 1 1 1 1 1 1 1 1 1 1 1 1 1 1 1 1 
        </DataArray>
        <DataArray type="Float32" Name="Density_Mixture" format="ascii">
106.137 106.138 106.143 106.11 338.712 336.568 107.474 107.52 309.987 314.583 361.885 361.897 423.217 416.717 106.138 106.138 172.072 195.243 121.523 130.606 132.223 111.726 106.138 106.138 177.172 177.464 106.138 106.138 106.138 106.138 106.138 106.138 105.863 106.485 106.138 106.138 106.138 106.138 106.138 93.5607 93.5615 106.138 106.138 106.137 106.104 105.033 105.029 106.103 106.137 106.138 106.138 106.138 87.8437 106.138 106.138 106.138 106.138 106.138 106.138 106.137 106.124 105.52 106.065 96.881 104.336 
        </DataArray>
        <DataArray type="Float32" Name="Pressure_Mixture" format="ascii">
6.27177e+06 6.27186e+06 6.2722e+06 6.26989e+06 1.88713e+07 1.87236e+07 6.36789e+06 6.37117e+06 1.76578e+07 1.80418e+07 1.81929e+07 1.81936e+07 2.19815e+07 2.16069e+07 6.27186e+06 6.27184e+06 1.08289e+07 1.24216e+07 7.38305e+06 8.0594e+06 8.17621e+06 6.6928e+06 6.27186e+06 6.27186e+06 1.13903e+07 1.14063e+07 6.27186e+06 6.27186e+06 6.27186e+06 6.27186e+06 6.27186e+06 6.27186e+06 6.25222e+06 6.29677e+06 6.27186e+06 6.27186e+06 6.27186e+06 6.27186e+06 6.27186e+06 5.37841e+06 5.37847e+06 6.27186e+06 6.27186e+06 6.27183e+06 6.26947e+06 6.19291e+06 6.19265e+06 6.26941e+06 6.27183e+06 6.27186e+06 6.27186e+06 6.27186e+06 5.07783e+06 6.27186e+06 6.27186e+06 6.27186e+06 6.27186e+06 6.27185e+06 6.27186e+06 6.27178e+06 6.27087e+06 6.22769e+06 6.26669e+06 5.61272e+06 6.14354e+06 
        </DataArray>
        <DataArray type="Float32" Name="Velocity_Mixture" NumberOfComponents="3" format="ascii">
-0.00336861 0.000193635 0 -1.33479e-05 0.000335155 0 0.0208124 0.103159 0 -0.0293529 -0.148911 0 282.887 -3.94799 0 283.966 5.9328 0 3.24785 -0.965775 0 3.38117 0.989227 0 273.856 45.6924 0 270.819 -38.7703 0 336.229 0.288664 0 336.224 -0.291518 0 306.085 -40.2372 0 303.471 51.4224 0 0.000184366 0.000209637 0 -0.000592321 0.000435357 0 140.095 -13.6237 0 136.369 47.2898 0 37.4268 -7.71271 0 62.4075 -12.2576 0 61.5315 10.5529 0 10.2815 -5.28157 0 1.45951e-05 0 0 1.0285e-05 0 0 153.093 -22.1379 0 154.175 23.9642 0 0 0 0 0 0 0 0 0 0 0 0 0 0 0 0 0 0 0 -0.363322 -0.299451 0 0.504683 -0.0664862 0 0 0 0 0 0 0 0 0 0 0 0 0 0 0 0 9.02453 -1.29129 0 9.02429 1.29205 0 0 0 0 0 0 0 0.000149425 -0.000262074 0 0.0146809 -0.0153657 0 0.548915 -0.301605 0 0.589858 0.28836 0 0.0163008 0.0150677 0 0.000176789 0.000265189 0 0 0 0 0 0 0 0 0 0 45.2335 0.000756421 0 0 0 0 0 0 0 0 0 0 0 0 0 6.5907e-05 1.34358e-06 0 1.347e-05 0 0 0.00453994 -0.000163683 0 0.00962901 0.00159838 0 0.512717 0.0675222 0 0.311146 -0.00996488 0 11.3216 -0.00207219 0 8.27343 -0.227286 0 
        </DataArray>
        <DataArray type="Float32" Name="gradRho" format="ascii">
0.00159388 0.0079438 0.328863 0.437882 58.9446 58.9398 9.77305 9.15143 63.0105 73.894 16.0955 17.5899 25.6474 25.1978 0.000100432 0.000381655 56.8399 54.4746 19.471 25.2008 23.8833 24.483 8.56953e-05 1.67399e-05 68.6526 69.9173 1.04055e-11 2.11133e-07 8.27052e-07 2.10216e-06 4.51841e-06 8.82957e-09 2.0246 5.30246 0 0 0 0 0 0.897319 0.897574 4.33507e-09 1.41183e-06 0.000138086 0.00651651 0.100902 0.0999306 0.00618355 0.000127675 1.22204e-06 3.49951e-09 0 0.8243 0 1.01537e-09 1.73399e-07 3.46297e-07 7.02299e-05 4.14716e-05 0.00449115 0.00636511 0.238004 0.194711 2.92846 2.67612 
        </DataArray>
      </CellData>
    </Piece>
  </UnstructuredGrid>
</VTKFile>
