<?xml version="1.0"?>
<VTKFile type="UnstructuredGrid" version="0.1" byte_order="LittleEndian">
  <UnstructuredGrid>
    <Piece NumberOfPoints="50" NumberOfCells="65">
      <Points>
        <DataArray type="Float32" NumberOfComponents="3" format="ascii">
          0 5 0 0 -5 0 15 0.2 0 15 -0.2 0 35 0.2 0 35 -0.2 0 2.14286 4.31429 0 4.28571 3.62857 0 6.42857 2.94286 0 8.57143 2.25714 0 10.7143 1.57143 0 12.8571 0.885714 0 17.8571 0.2 0 20.7143 0.2 0 23.5714 0.2 0 26.4286 0.2 0 29.2857 0.2 0 32.1429 0.2 0 32.1429 -0.2 0 29.2857 -0.2 0 26.4286 -0.2 0 23.5714 -0.2 0 20.7143 -0.2 0 17.8571 -0.2 0 12.8571 -0.885714 0 10.7143 -1.57143 0 8.57143 -2.25714 0 6.42857 -2.94286 0 4.28571 -3.62857 0 2.14286 -4.31429 0 0 -2.5 0 0 -6.16307e-12 0 0 2.5 0 3.95974 -5.7158e-13 0 13.9286 -3.66374e-15 0 6.61813 2.81487e-12 0 2.86365 2.0434 0 2.86365 -2.0434 0 9.43036 1.987e-12 0 11.3926 2.79508e-14 0 4.83116 1.72297 0 4.83116 -1.72297 0 1.90629 -3.21031e-12 0 33.5714 0 0 16.4286 -1.80625e-18 0 25 6.93889e-18 0 19.2857 -6.93889e-18 0 30.7143 0 0 22.1429 0 0 27.8571 0 0 
        </DataArray>
      </Points>
      <Cells>
        <DataArray type="Int32" Name="connectivity" format="ascii">
          8 9 35 26 27 35 8 35 40 27 41 35 30 42 37 32 36 42 33 40 35 33 35 41 29 30 37 6 36 32 30 31 42 31 32 42 0 6 32 30 29 1 26 35 38 9 38 35 6 7 36 28 29 37 7 40 36 33 41 37 33 36 40 28 37 41 9 10 38 25 26 38 33 42 36 33 37 42 11 34 24 24 25 39 10 11 39 25 38 39 10 39 38 11 24 39 27 28 41 7 8 40 2 34 11 3 24 34 2 3 34 2 44 12 3 23 44 4 17 43 5 43 18 12 46 13 13 48 14 14 45 15 15 49 16 16 47 17 18 47 19 19 49 20 20 45 21 21 48 22 22 46 23 2 3 44 4 43 5 12 44 23 12 23 46 13 46 22 13 22 48 14 21 45 14 48 21 15 45 20 15 20 49 16 19 47 16 49 19 17 18 43 17 47 18 
        </DataArray>
        <DataArray type="Int32" Name="offsets" format="ascii">
          3 6 9 12 15 18 21 24 27 30 33 36 39 42 45 48 51 54 57 60 63 66 69 72 75 78 81 84 87 90 93 96 99 102 105 108 111 114 117 120 123 126 129 132 135 138 141 144 147 150 153 156 159 162 165 168 171 174 177 180 183 186 189 192 195 
        </DataArray>
        <DataArray type="UInt8" Name="types" format="ascii">
          5 5 5 5 5 5 5 5 5 5 5 5 5 5 5 5 5 5 5 5 5 5 5 5 5 5 5 5 5 5 5 5 5 5 5 5 5 5 5 5 5 5 5 5 5 5 5 5 5 5 5 5 5 5 5 5 5 5 5 5 5 5 5 5 5 
        </DataArray>
      </Cells>
      <CellData>
        <DataArray type="Float32" Name="F0_Alpha_SG_co2liq_mod.xml" format="ascii">
1.72645e-10 1.72659e-10 1.72434e-10 1.7256e-10 1.65343e-10 1.65338e-10 1.70968e-10 1.70855e-10 1.64646e-10 1.64441e-10 1.67734e-10 1.67734e-10 1.63343e-10 1.63641e-10 1.72682e-10 1.72678e-10 1.64782e-10 1.63947e-10 1.67038e-10 1.67011e-10 1.67045e-10 1.67066e-10 1.72682e-10 1.72682e-10 1.6609e-10 1.66103e-10 1.72682e-10 1.72682e-10 1.72682e-10 1.72682e-10 1.72682e-10 1.72682e-10 1.71475e-10 1.71313e-10 1.72682e-10 1.72682e-10 1.72682e-10 1.72682e-10 1.72682e-10 1.73232e-10 1.73232e-10 1.72682e-10 1.72682e-10 1.72682e-10 1.72693e-10 1.72807e-10 1.72807e-10 1.72693e-10 1.72682e-10 1.72682e-10 1.72682e-10 1.72682e-10 1.73279e-10 1.72682e-10 1.72682e-10 1.72682e-10 1.72682e-10 1.72682e-10 1.72682e-10 1.72683e-10 1.72689e-10 1.7277e-10 1.727e-10 1.73144e-10 1.72847e-10 
        </DataArray>
        <DataArray type="Float32" Name="F0_Density_SG_co2liq_mod.xml" format="ascii">
5899.5 5898.57 5912.54 5904.81 6460.6 6460.82 5998.31 6004.66 6501.08 6514.11 6343.55 6343.52 6628.74 6609.03 5897.11 5897.36 6407.23 6459.08 6223.47 6244.79 6242.93 6223.59 5897.13 5897.13 6344.58 6343.64 5897.13 5897.13 5897.13 5897.13 5897.12 5897.13 5967.79 5976.56 5897.13 5897.13 5897.13 5897.13 5897.13 5859.99 5860 5897.13 5897.13 5897.1 5896.4 5889.08 5889.11 5896.4 5897.1 5897.13 5897.13 5897.13 5852.84 5897.13 5897.13 5897.13 5897.13 5897.11 5897.13 5897.07 5896.7 5891.48 5895.98 5866.38 5886.47 
        </DataArray>
        <DataArray type="Float32" Name="F0_Temperature_SG_co2liq_mod.xml" format="ascii">
41.7881 41.7852 41.8264 41.8041 42.4055 42.4056 42.013 42.0237 42.4214 42.4261 42.3496 42.3495 42.462 42.4566 41.7806 41.7814 42.3821 42.4049 42.271 42.2869 42.2856 42.2711 41.7807 41.7807 42.3501 42.3496 41.7807 41.7807 41.7807 41.7807 41.7807 41.7807 41.9565 41.9736 41.7807 41.7807 41.7807 41.7807 41.7807 41.6415 41.6415 41.7807 41.7807 41.7806 41.7784 41.7545 41.7546 41.7784 41.7806 41.7807 41.7807 41.7807 41.6076 41.7807 41.7807 41.7807 41.7807 41.7806 41.7807 41.7805 41.7793 41.7625 41.7771 41.6693 41.7456 
        </DataArray>
        <DataArray type="Float32" Name="F0_Mass fraction_SG_co2liq_mod.xml" format="ascii">
9.49617e-09 9.53445e-09 9.00399e-09 9.28757e-09 2.58922e-09 2.58899e-09 6.87108e-09 6.76073e-09 2.50405e-09 2.47437e-09 2.78752e-09 2.78761e-09 2.13714e-09 2.17131e-09 9.59537e-09 9.58464e-09 3.11796e-09 2.94527e-09 4.38964e-09 4.05562e-09 4.06558e-09 4.36967e-09 9.59452e-09 9.59458e-09 3.25506e-09 3.25929e-09 9.5944e-09 9.5944e-09 9.59442e-09 9.59439e-09 9.59462e-09 9.5944e-09 7.52217e-09 7.3496e-09 9.5944e-09 9.5944e-09 9.5944e-09 9.5944e-09 9.5944e-09 1.16161e-08 1.16158e-08 9.5944e-09 9.59443e-09 9.59575e-09 9.62528e-09 9.9499e-09 9.94851e-09 9.6254e-09 9.59577e-09 9.59443e-09 9.5944e-09 9.5944e-09 1.23977e-08 9.5944e-09 9.5944e-09 9.5944e-09 9.59441e-09 9.59506e-09 9.59447e-09 9.59695e-09 9.61253e-09 9.84025e-09 9.64297e-09 1.11832e-08 1.00749e-08 
        </DataArray>
        <DataArray type="Float32" Name="F1_Alpha_SG_co2gas_mod.xml" format="ascii">
1 1 1 1 1 1 1 1 1 1 1 1 1 1 1 1 1 1 1 1 1 1 1 1 1 1 1 1 1 1 1 1 1 1 1 1 1 1 1 1 1 1 1 1 1 1 1 1 1 1 1 1 1 1 1 1 1 1 1 1 1 1 1 1 1 
        </DataArray>
        <DataArray type="Float32" Name="F1_Density_SG_co2gas_mod.xml" format="ascii">
107.256 106.817 113.23 109.709 412.562 412.601 149.251 151.748 427.459 432.913 381.711 381.697 506.637 498.089 106.127 106.248 338.618 359.54 236.821 257.161 256.507 237.948 106.136 106.136 323.732 323.291 106.138 106.138 106.138 106.138 106.135 106.138 136.042 139.309 106.138 106.138 106.138 106.138 106.138 87.3908 87.393 106.138 106.137 106.123 105.791 102.28 102.294 105.79 106.122 106.137 106.138 106.138 81.8035 106.138 106.138 106.138 106.138 106.13 106.137 106.109 105.934 103.44 105.594 90.8262 100.989 
        </DataArray>
        <DataArray type="Float32" Name="F1_Temperature_SG_co2gas_mod.xml" format="ascii">
466.688 466.566 468.497 467.451 379.429 379.486 477.817 478.44 382.723 383.135 356.015 356.015 366.459 365.945 466.382 466.414 434.621 434.643 482.475 459.419 459.273 480.285 466.385 466.385 420.341 420.399 466.385 466.385 466.385 466.385 466.385 466.385 478.014 479.91 466.385 466.385 466.385 466.385 466.385 461.312 461.313 466.385 466.385 466.381 466.294 465.364 465.366 466.294 466.381 466.385 466.385 466.385 469.259 466.385 466.385 466.385 466.385 466.383 466.385 466.378 466.332 465.67 466.243 462.202 465.111 
        </DataArray>
        <DataArray type="Float32" Name="F1_Mass fraction_SG_co2gas_mod.xml" format="ascii">
1 1 1 1 1 1 1 1 1 1 1 1 1 1 1 1 1 1 1 1 1 1 1 1 1 1 1 1 1 1 1 1 1 1 1 1 1 1 1 1 1 1 1 1 1 1 1 1 1 1 1 1 1 1 1 1 1 1 1 1 1 1 1 1 1 
        </DataArray>
        <DataArray type="Float32" Name="Density_Mixture" format="ascii">
107.256 106.817 113.23 109.709 412.562 412.601 149.251 151.748 427.459 432.913 381.711 381.697 506.637 498.089 106.127 106.248 338.618 359.54 236.821 257.161 256.507 237.948 106.136 106.136 323.732 323.291 106.138 106.138 106.138 106.138 106.135 106.138 136.042 139.309 106.138 106.138 106.138 106.138 106.138 87.3908 87.393 106.138 106.137 106.123 105.791 102.28 102.294 105.79 106.122 106.137 106.138 106.138 81.8035 106.138 106.138 106.138 106.138 106.13 106.137 106.109 105.934 103.44 105.594 90.8262 100.989 
        </DataArray>
        <DataArray type="Float32" Name="Pressure_Mixture" format="ascii">
6.35195e+06 6.32047e+06 6.78476e+06 6.52961e+06 2.17493e+07 2.17549e+07 9.42612e+06 9.6123e+06 2.27704e+07 2.3098e+07 1.87644e+07 1.87637e+07 2.59607e+07 2.54707e+07 6.27108e+06 6.27973e+06 2.03949e+07 2.17109e+07 1.5636e+07 1.61977e+07 1.61488e+07 1.56393e+07 6.27176e+06 6.27171e+06 1.87909e+07 1.87668e+07 6.27186e+06 6.27186e+06 6.27184e+06 6.27186e+06 6.27168e+06 6.27186e+06 8.51729e+06 8.78135e+06 6.27186e+06 6.27186e+06 6.27186e+06 6.27186e+06 6.27186e+06 4.94347e+06 4.94363e+06 6.27186e+06 6.27183e+06 6.27077e+06 6.24709e+06 5.99658e+06 5.99759e+06 6.24699e+06 6.27075e+06 6.27183e+06 6.27186e+06 6.27186e+06 4.66476e+06 6.27186e+06 6.27186e+06 6.27186e+06 6.27185e+06 6.27132e+06 6.2718e+06 6.26981e+06 6.25729e+06 6.07919e+06 6.23299e+06 5.18432e+06 5.90601e+06 
        </DataArray>
        <DataArray type="Float32" Name="Velocity_Mixture" NumberOfComponents="3" format="ascii">
2.97314 -0.0356034 0 1.28085 0.300582 0 15.1145 -0.90003 0 8.56457 -6.23726 0 317.306 7.78678 0 318.478 -9.28553 0 102.337 -6.93467 0 107.34 6.29335 0 308.14 43.6302 0 306.883 -42.5631 0 342.761 0.118146 0 342.762 -0.116978 0 296.934 -43.7773 0 298.255 46.3866 0 -0.0265711 -0.065171 0 0.237394 -0.148304 0 269.009 -51.3868 0 269.226 74.3415 0 215.199 -32.4937 0 231.206 1.33831 0 231.321 1.06179 0 197.163 57.0183 0 -0.0155609 -0.0121871 0 -0.00255478 -0.000813908 0 273.031 -20.0725 0 273.748 22.4773 0 0 0 0 1.13498e-05 0 0 -0.000466418 -0.000143276 0 0.000422072 0.0010763 0 -0.00502173 0.00401404 0 0 3.83334e-07 0 53.0997 17.8997 0 80.8526 -3.12679 0 0 0 0 0 0 0 0 0 0 0 0 0 0 0 0 17.6301 -0.976312 0 17.6314 0.980743 0 0 0 0 0.000134619 -0.000171367 0 0.00718764 -0.00549955 0 0.181209 -0.0859498 0 2.35754 -0.551328 0 2.41886 0.528284 0 0.191702 0.0826284 0 0.00780503 0.00535669 0 0.000155401 0.000168063 0 0 0 0 0 0 0 59.0419 0.00500418 0 0 0 0 0 0 0 2.65405e-05 0 0 8.1582e-05 0 0 0.00590796 0.000768797 0 0.00338564 -0.000107224 0 0.126679 -0.0036124 0 0.18888 0.0177529 0 3.2239 0.172301 0 2.46824 -0.0577884 0 28.501 -0.00678344 0 22.3295 -0.296659 0 
        </DataArray>
        <DataArray type="Float32" Name="gradRho" format="ascii">
1.88529 0.94557 10.7741 10.8859 25.7068 26.6941 48.2718 48.8744 41.9626 52.2665 21.4276 21.4619 17.4055 16.6749 0.167487 0.330411 51.7373 47.6844 67.0548 57.2115 58.1969 74.2837 0.0379946 0.00350029 51.9187 51.6849 2.9378e-06 2.47872e-05 0.000893773 0.00102225 0.00110682 9.1015e-05 38.9724 37.413 3.9379e-08 4.33845e-08 5.96381e-09 1.31285e-08 1.10954e-08 0.854386 0.855138 1.90355e-06 7.62628e-05 0.002124 0.0283077 0.179863 0.181416 0.0279669 0.00204444 7.25073e-05 1.62986e-06 4.28823e-09 0.805705 4.37055e-07 6.90765e-07 4.72068e-05 6.76007e-05 0.00308517 0.00236998 0.0625817 0.0750869 0.864701 0.772826 3.88706 3.68176 
        </DataArray>
      </CellData>
    </Piece>
  </UnstructuredGrid>
</VTKFile>
