<?xml version="1.0"?>
<VTKFile type="UnstructuredGrid" version="0.1" byte_order="LittleEndian">
  <UnstructuredGrid>
    <Piece NumberOfPoints="50" NumberOfCells="65">
      <Points>
        <DataArray type="Float32" NumberOfComponents="3" format="ascii">
          0 5 0 0 -5 0 15 0.2 0 15 -0.2 0 35 0.2 0 35 -0.2 0 2.14286 4.31429 0 4.28571 3.62857 0 6.42857 2.94286 0 8.57143 2.25714 0 10.7143 1.57143 0 12.8571 0.885714 0 17.8571 0.2 0 20.7143 0.2 0 23.5714 0.2 0 26.4286 0.2 0 29.2857 0.2 0 32.1429 0.2 0 32.1429 -0.2 0 29.2857 -0.2 0 26.4286 -0.2 0 23.5714 -0.2 0 20.7143 -0.2 0 17.8571 -0.2 0 12.8571 -0.885714 0 10.7143 -1.57143 0 8.57143 -2.25714 0 6.42857 -2.94286 0 4.28571 -3.62857 0 2.14286 -4.31429 0 0 -2.5 0 0 -6.16307e-12 0 0 2.5 0 3.95974 -5.7158e-13 0 13.9286 -3.66374e-15 0 6.61813 2.81487e-12 0 2.86365 2.0434 0 2.86365 -2.0434 0 9.43036 1.987e-12 0 11.3926 2.79508e-14 0 4.83116 1.72297 0 4.83116 -1.72297 0 1.90629 -3.21031e-12 0 33.5714 0 0 16.4286 -1.80625e-18 0 25 6.93889e-18 0 19.2857 -6.93889e-18 0 30.7143 0 0 22.1429 0 0 27.8571 0 0 
        </DataArray>
      </Points>
      <Cells>
        <DataArray type="Int32" Name="connectivity" format="ascii">
          8 9 35 26 27 35 8 35 40 27 41 35 30 42 37 32 36 42 33 40 35 33 35 41 29 30 37 6 36 32 30 31 42 31 32 42 0 6 32 30 29 1 26 35 38 9 38 35 6 7 36 28 29 37 7 40 36 33 41 37 33 36 40 28 37 41 9 10 38 25 26 38 33 42 36 33 37 42 11 34 24 24 25 39 10 11 39 25 38 39 10 39 38 11 24 39 27 28 41 7 8 40 2 34 11 3 24 34 2 3 34 2 44 12 3 23 44 4 17 43 5 43 18 12 46 13 13 48 14 14 45 15 15 49 16 16 47 17 18 47 19 19 49 20 20 45 21 21 48 22 22 46 23 2 3 44 4 43 5 12 44 23 12 23 46 13 46 22 13 22 48 14 21 45 14 48 21 15 45 20 15 20 49 16 19 47 16 49 19 17 18 43 17 47 18 
        </DataArray>
        <DataArray type="Int32" Name="offsets" format="ascii">
          3 6 9 12 15 18 21 24 27 30 33 36 39 42 45 48 51 54 57 60 63 66 69 72 75 78 81 84 87 90 93 96 99 102 105 108 111 114 117 120 123 126 129 132 135 138 141 144 147 150 153 156 159 162 165 168 171 174 177 180 183 186 189 192 195 
        </DataArray>
        <DataArray type="UInt8" Name="types" format="ascii">
          5 5 5 5 5 5 5 5 5 5 5 5 5 5 5 5 5 5 5 5 5 5 5 5 5 5 5 5 5 5 5 5 5 5 5 5 5 5 5 5 5 5 5 5 5 5 5 5 5 5 5 5 5 5 5 5 5 5 5 5 5 5 5 5 5 
        </DataArray>
      </Cells>
      <CellData>
        <DataArray type="Float32" Name="F0_Alpha_SG_co2liq_mod.xml" format="ascii">
1.72679e-10 1.72681e-10 1.72653e-10 1.7267e-10 1.65659e-10 1.65767e-10 1.72264e-10 1.72258e-10 1.65521e-10 1.65203e-10 1.67731e-10 1.67731e-10 1.64306e-10 1.64591e-10 1.72682e-10 1.72682e-10 1.6728e-10 1.66157e-10 1.70378e-10 1.69663e-10 1.69589e-10 1.70671e-10 1.72682e-10 1.72682e-10 1.67619e-10 1.67598e-10 1.72682e-10 1.72682e-10 1.72682e-10 1.72682e-10 1.72682e-10 1.72682e-10 1.72599e-10 1.72449e-10 1.72682e-10 1.72682e-10 1.72682e-10 1.72682e-10 1.72682e-10 1.73158e-10 1.73157e-10 1.72682e-10 1.72682e-10 1.72682e-10 1.72686e-10 1.72756e-10 1.72756e-10 1.72686e-10 1.72682e-10 1.72682e-10 1.72682e-10 1.72682e-10 1.73215e-10 1.72682e-10 1.72682e-10 1.72682e-10 1.72682e-10 1.72682e-10 1.72682e-10 1.72682e-10 1.72684e-10 1.7273e-10 1.7269e-10 1.73065e-10 1.72787e-10 
        </DataArray>
        <DataArray type="Float32" Name="F0_Density_SG_co2liq_mod.xml" format="ascii">
5897.32 5897.22 5898.99 5897.87 6422.48 6415.54 5922.66 5923.04 6417.8 6437.61 6337.02 6336.98 6554.7 6536.07 5897.13 5897.14 6229.36 6298.27 6030.51 6076.12 6080.37 6013.9 5897.13 5897.13 6218.41 6219.27 5897.13 5897.13 5897.13 5897.13 5897.13 5897.13 5902.26 5911.43 5897.13 5897.13 5897.13 5897.13 5897.13 5865.36 5865.37 5897.13 5897.13 5897.12 5896.86 5892.37 5892.37 5896.86 5897.12 5897.13 5897.13 5897.13 5857.79 5897.13 5897.13 5897.13 5897.13 5897.13 5897.13 5897.11 5896.99 5894.05 5896.65 5871.88 5890.34 
        </DataArray>
        <DataArray type="Float32" Name="F0_Temperature_SG_co2liq_mod.xml" format="ascii">
41.7813 41.781 41.7865 41.783 42.3891 42.3859 41.8537 41.8547 42.387 42.3958 42.3459 42.3459 42.44 42.4338 41.7807 41.7807 42.2755 42.3229 42.0645 42.1266 42.1319 42.0388 41.7807 41.7807 42.267 42.2677 41.7807 41.7807 41.7807 41.7807 41.7807 41.7807 41.7965 41.8232 41.7807 41.7807 41.7807 41.7807 41.7807 41.6651 41.6651 41.7807 41.7807 41.7807 41.7798 41.7654 41.7654 41.7798 41.7807 41.7807 41.7807 41.7807 41.6314 41.7807 41.7807 41.7807 41.7807 41.7807 41.7807 41.7806 41.7802 41.7709 41.7791 41.6918 41.7587 
        </DataArray>
        <DataArray type="Float32" Name="F0_Mass fraction_SG_co2liq_mod.xml" format="ascii">
9.58658e-09 9.59055e-09 9.5173e-09 9.5637e-09 2.75648e-09 2.77699e-09 8.67476e-09 8.66276e-09 2.82319e-09 2.76627e-09 2.8338e-09 2.83394e-09 2.29883e-09 2.33667e-09 9.59448e-09 9.59398e-09 4.14547e-09 3.73928e-09 6.37352e-09 5.66131e-09 5.61159e-09 6.63527e-09 9.59441e-09 9.5944e-09 4.12787e-09 4.12602e-09 9.5944e-09 9.5944e-09 9.5944e-09 9.5944e-09 9.5944e-09 9.5944e-09 9.39145e-09 9.05185e-09 9.5944e-09 9.5944e-09 9.5944e-09 9.5944e-09 9.5944e-09 1.12506e-08 1.12504e-08 9.5944e-09 9.5944e-09 9.59469e-09 9.60583e-09 9.80046e-09 9.80021e-09 9.60594e-09 9.5947e-09 9.5944e-09 9.5944e-09 9.5944e-09 1.1992e-08 9.5944e-09 9.5944e-09 9.5944e-09 9.5944e-09 9.59452e-09 9.59441e-09 9.59505e-09 9.60025e-09 9.72616e-09 9.61484e-09 1.08464e-08 9.89303e-09 
        </DataArray>
        <DataArray type="Float32" Name="F1_Alpha_SG_co2gas_mod.xml" format="ascii">
1 1 1 1 1 1 1 1 1 1 1 1 1 1 1 1 1 1 1 1 1 1 1 1 1 1 1 1 1 1 1 1 1 1 1 1 1 1 1 1 1 1 1 1 1 1 1 1 1 1 1 1 1 1 1 1 1 1 1 1 1 1 1 1 1 
        </DataArray>
        <DataArray type="Float32" Name="F1_Density_SG_co2gas_mod.xml" format="ascii">
106.226 106.181 107.013 106.485 385.978 382.962 117.613 117.779 376.27 384.458 375.084 375.064 468.488 460.388 106.137 106.143 251.37 279.867 161.209 182.095 183.756 154.689 106.138 106.138 252.509 252.626 106.138 106.138 106.138 106.138 106.138 106.138 108.473 112.62 106.138 106.138 106.138 106.138 106.138 90.2739 90.2753 106.138 106.138 106.134 106.009 103.867 103.87 106.008 106.134 106.138 106.138 106.138 84.611 106.138 106.138 106.138 106.138 106.136 106.138 106.13 106.072 104.674 105.908 93.6918 102.878 
        </DataArray>
        <DataArray type="Float32" Name="F1_Temperature_SG_co2gas_mod.xml" format="ascii">
466.409 466.397 466.622 466.481 388.243 388.115 470.354 470.401 396.073 396.689 359.207 359.207 369.063 368.549 466.385 466.387 458.83 456.649 482.434 476.03 476.187 481.367 466.385 466.385 448.838 449.251 466.385 466.385 466.385 466.385 466.385 466.385 467.355 468.792 466.385 466.385 466.385 466.385 466.385 462.125 462.126 466.385 466.385 466.384 466.351 465.786 465.786 466.351 466.384 466.385 466.385 466.385 469.546 466.385 466.385 466.385 466.385 466.385 466.385 466.383 466.368 465.998 466.325 463.011 465.575 
        </DataArray>
        <DataArray type="Float32" Name="F1_Mass fraction_SG_co2gas_mod.xml" format="ascii">
1 1 1 1 1 1 1 1 1 1 1 1 1 1 1 1 1 1 1 1 1 1 1 1 1 1 1 1 1 1 1 1 1 1 1 1 1 1 1 1 1 1 1 1 1 1 1 1 1 1 1 1 1 1 1 1 1 1 1 1 1 1 1 1 1 
        </DataArray>
        <DataArray type="Float32" Name="Density_Mixture" format="ascii">
106.226 106.181 107.013 106.485 385.978 382.962 117.613 117.779 376.27 384.458 375.084 375.064 468.488 460.388 106.137 106.143 251.37 279.867 161.209 182.095 183.756 154.689 106.138 106.138 252.509 252.626 106.138 106.138 106.138 106.138 106.138 106.138 108.473 112.62 106.138 106.138 106.138 106.138 106.138 90.2739 90.2753 106.138 106.138 106.134 106.009 103.867 103.87 106.008 106.134 106.138 106.138 106.138 84.611 106.138 106.138 106.138 106.138 106.136 106.138 106.13 106.072 104.674 105.908 93.6918 102.878 
        </DataArray>
        <DataArray type="Float32" Name="Pressure_Mixture" format="ascii">
6.27816e+06 6.27496e+06 6.33455e+06 6.29672e+06 2.07828e+07 2.06064e+07 7.11321e+06 7.12531e+06 2.06638e+07 2.1167e+07 1.85964e+07 1.85953e+07 2.41155e+07 2.36491e+07 6.27179e+06 6.2722e+06 1.57916e+07 1.75941e+07 1.03599e+07 1.16483e+07 1.17668e+07 9.88122e+06 6.27185e+06 6.27185e+06 1.55023e+07 1.5525e+07 6.27186e+06 6.27186e+06 6.27186e+06 6.27186e+06 6.27185e+06 6.27186e+06 6.44458e+06 6.74822e+06 6.27186e+06 6.27186e+06 6.27186e+06 6.27186e+06 6.27186e+06 5.1464e+06 5.1465e+06 6.27186e+06 6.27185e+06 6.27162e+06 6.26267e+06 6.10971e+06 6.10989e+06 6.26258e+06 6.27162e+06 6.27185e+06 6.27186e+06 6.27186e+06 4.85878e+06 6.27186e+06 6.27186e+06 6.27186e+06 6.27186e+06 6.27176e+06 6.27185e+06 6.27134e+06 6.26715e+06 6.16732e+06 6.25545e+06 5.38679e+06 6.03997e+06 
        </DataArray>
        <DataArray type="Float32" Name="Velocity_Mixture" NumberOfComponents="3" format="ascii">
0.227929 0.00366338 0 0.087419 0.0113202 0 1.7474 0.271363 0 0.863011 -1.39417 0 306.294 2.62685 0 307.824 -1.67126 0 29.831 -4.60241 0 30.4826 4.30307 0 299.387 43.8743 0 296.934 -40.356 0 340.911 0.147401 0 340.907 -0.149182 0 303.2 -43.0026 0 303.087 48.5287 0 -0.0017915 -0.00240319 0 0.00948814 -0.00706356 0 223.912 -33.9107 0 219.469 67.0202 0 120.047 -16.8981 0 155.218 -12.2282 0 153.187 10.6707 0 90.5544 23.9711 0 -0.000386112 -0.000256644 0 -8.62952e-05 1.64255e-05 0 230.925 -22.8369 0 232.437 25.632 0 0 0 0 0 0 0 0 0 0 3.66661e-06 8.52186e-06 0 -9.47033e-05 7.36012e-05 0 0 0 0 4.4541 -0.321026 0 16.8586 1.54762 0 0 0 0 0 0 0 0 0 0 0 0 0 0 0 0 12.99 -1.13901 0 12.9902 1.14119 0 0 0 0 0 -2.38346e-05 0 0.00142558 -0.001548 0 0.0619938 -0.0423748 0 1.24988 -0.438755 0 1.31259 0.415494 0 0.0668526 0.0409809 0 0.00159071 0.00153151 0 0 2.6674e-05 0 0 0 0 0 0 0 52.9105 0.00239567 0 0 0 0 0 0 0 0 0 0 0 0 0 0.000934257 0.000150506 0 0.000442371 -3.36995e-06 0 0.0309527 -0.000998627 0 0.0529398 0.00672301 0 1.46455 0.128265 0 1.03097 -0.0280735 0 19.2085 -0.00467365 0 14.7827 -0.329052 0 
        </DataArray>
        <DataArray type="Float32" Name="gradRho" format="ascii">
0.240435 0.0946528 2.72887 2.95138 41.2685 41.8636 27.4285 26.8737 52.5247 66.5109 7.568 5.48356 19.8386 19.8593 0.0109427 0.0252834 61.7949 57.4054 43.3842 46.3168 45.7781 51.7725 0.00162993 0.000312058 66.4387 68.0022 5.54057e-09 9.64579e-07 1.75244e-05 1.93597e-05 3.47128e-05 5.13643e-07 16.405 17.6727 1.46489e-11 1.46489e-11 0 1.13872e-09 1.13872e-09 0.873247 0.873737 1.27587e-07 1.50899e-05 0.000683192 0.015401 0.137663 0.138133 0.0149826 0.000644529 1.25157e-05 1.06997e-07 0 0.816544 2.17626e-08 3.91795e-08 4.14927e-06 7.47368e-06 0.000621178 0.000435519 0.0208856 0.0266004 0.509263 0.441432 3.54364 3.31037 
        </DataArray>
      </CellData>
    </Piece>
  </UnstructuredGrid>
</VTKFile>
