<?xml version="1.0"?>
<VTKFile type="UnstructuredGrid" version="0.1" byte_order="LittleEndian">
  <UnstructuredGrid>
    <Piece NumberOfPoints="50" NumberOfCells="65">
      <Points>
        <DataArray type="Float32" NumberOfComponents="3" format="ascii">
          0 5 0 0 -5 0 15 0.2 0 15 -0.2 0 35 0.2 0 35 -0.2 0 2.14286 4.31429 0 4.28571 3.62857 0 6.42857 2.94286 0 8.57143 2.25714 0 10.7143 1.57143 0 12.8571 0.885714 0 17.8571 0.2 0 20.7143 0.2 0 23.5714 0.2 0 26.4286 0.2 0 29.2857 0.2 0 32.1429 0.2 0 32.1429 -0.2 0 29.2857 -0.2 0 26.4286 -0.2 0 23.5714 -0.2 0 20.7143 -0.2 0 17.8571 -0.2 0 12.8571 -0.885714 0 10.7143 -1.57143 0 8.57143 -2.25714 0 6.42857 -2.94286 0 4.28571 -3.62857 0 2.14286 -4.31429 0 0 -2.5 0 0 -6.16307e-12 0 0 2.5 0 3.95974 -5.7158e-13 0 13.9286 -3.66374e-15 0 6.61813 2.81487e-12 0 2.86365 2.0434 0 2.86365 -2.0434 0 9.43036 1.987e-12 0 11.3926 2.79508e-14 0 4.83116 1.72297 0 4.83116 -1.72297 0 1.90629 -3.21031e-12 0 33.5714 0 0 16.4286 -1.80625e-18 0 25 6.93889e-18 0 19.2857 -6.93889e-18 0 30.7143 0 0 22.1429 0 0 27.8571 0 0 
        </DataArray>
      </Points>
      <Cells>
        <DataArray type="Int32" Name="connectivity" format="ascii">
          8 9 35 26 27 35 8 35 40 27 41 35 30 42 37 32 36 42 33 40 35 33 35 41 29 30 37 6 36 32 30 31 42 31 32 42 0 6 32 30 29 1 26 35 38 9 38 35 6 7 36 28 29 37 7 40 36 33 41 37 33 36 40 28 37 41 9 10 38 25 26 38 33 42 36 33 37 42 11 34 24 24 25 39 10 11 39 25 38 39 10 39 38 11 24 39 27 28 41 7 8 40 2 34 11 3 24 34 2 3 34 2 44 12 3 23 44 4 17 43 5 43 18 12 46 13 13 48 14 14 45 15 15 49 16 16 47 17 18 47 19 19 49 20 20 45 21 21 48 22 22 46 23 2 3 44 4 43 5 12 44 23 12 23 46 13 46 22 13 22 48 14 21 45 14 48 21 15 45 20 15 20 49 16 19 47 16 49 19 17 18 43 17 47 18 
        </DataArray>
        <DataArray type="Int32" Name="offsets" format="ascii">
          3 6 9 12 15 18 21 24 27 30 33 36 39 42 45 48 51 54 57 60 63 66 69 72 75 78 81 84 87 90 93 96 99 102 105 108 111 114 117 120 123 126 129 132 135 138 141 144 147 150 153 156 159 162 165 168 171 174 177 180 183 186 189 192 195 
        </DataArray>
        <DataArray type="UInt8" Name="types" format="ascii">
          5 5 5 5 5 5 5 5 5 5 5 5 5 5 5 5 5 5 5 5 5 5 5 5 5 5 5 5 5 5 5 5 5 5 5 5 5 5 5 5 5 5 5 5 5 5 5 5 5 5 5 5 5 5 5 5 5 5 5 5 5 5 5 5 5 
        </DataArray>
      </Cells>
      <CellData>
        <DataArray type="Float32" Name="F0_Alpha_SG_co2liq_mod.xml" format="ascii">
1.72569e-10 1.72601e-10 1.72043e-10 1.72288e-10 1.65264e-10 1.65214e-10 1.69717e-10 1.69547e-10 1.6432e-10 1.64143e-10 1.67744e-10 1.67744e-10 1.62838e-10 1.63137e-10 1.72682e-10 1.72669e-10 1.63891e-10 1.63319e-10 1.65228e-10 1.65781e-10 1.6593e-10 1.64981e-10 1.72682e-10 1.72682e-10 1.65475e-10 1.65511e-10 1.72682e-10 1.72682e-10 1.72682e-10 1.72682e-10 1.72682e-10 1.72682e-10 1.69903e-10 1.69881e-10 1.72682e-10 1.72682e-10 1.72682e-10 1.72682e-10 1.72682e-10 1.73267e-10 1.73267e-10 1.72682e-10 1.72682e-10 1.72683e-10 1.727e-10 1.72839e-10 1.72839e-10 1.727e-10 1.72683e-10 1.72682e-10 1.72682e-10 1.72682e-10 1.7331e-10 1.72682e-10 1.72682e-10 1.72682e-10 1.72682e-10 1.72683e-10 1.72682e-10 1.72684e-10 1.72693e-10 1.72796e-10 1.72708e-10 1.73181e-10 1.72883e-10 
        </DataArray>
        <DataArray type="Float32" Name="F0_Density_SG_co2liq_mod.xml" format="ascii">
5904.27 5902.23 5935.93 5921.03 6474.11 6477.2 6070.35 6080.01 6534.99 6545.24 6345.29 6345.27 6666.74 6646.83 5897.1 5897.97 6481.87 6518.04 6337.6 6332.39 6323.8 6351.98 5897.12 5897.12 6399.57 6397.25 5897.13 5897.13 5897.13 5897.13 5897.11 5897.13 6055.74 6055.74 5897.13 5897.13 5897.13 5897.13 5897.13 5857.45 5857.45 5897.13 5897.13 5897.07 5895.99 5886.99 5887.03 5895.99 5897.07 5897.13 5897.13 5897.13 5850.49 5897.13 5897.13 5897.13 5897.13 5897.1 5897.13 5897.02 5896.42 5889.78 5895.44 5863.69 5884.05 
        </DataArray>
        <DataArray type="Float32" Name="F0_Temperature_SG_co2liq_mod.xml" format="ascii">
41.8025 41.7964 41.8868 41.8494 42.411 42.4122 42.1194 42.1314 42.4334 42.4369 42.3505 42.3505 42.4718 42.4668 41.7806 41.7833 42.414 42.4275 42.3462 42.3433 42.3383 42.3542 41.7806 41.7806 42.3784 42.3773 41.7807 41.7807 41.7807 41.7807 41.7806 41.7807 42.1002 42.1002 41.7807 41.7807 41.7807 41.7807 41.7807 41.6298 41.6298 41.7807 41.7807 41.7805 41.7771 41.7474 41.7475 41.7771 41.7805 41.7807 41.7807 41.7807 41.5957 41.7807 41.7807 41.7807 41.7807 41.7806 41.7807 41.7803 41.7784 41.7568 41.7753 41.6579 41.7372 
        </DataArray>
        <DataArray type="Float32" Name="F0_Mass fraction_SG_co2liq_mod.xml" format="ascii">
9.30748e-09 9.38651e-09 8.27394e-09 8.7353e-09 2.52829e-09 2.52119e-09 5.78148e-09 5.66623e-09 2.38998e-09 2.37168e-09 2.77317e-09 2.77325e-09 2.06519e-09 2.09734e-09 9.59554e-09 9.5594e-09 2.79357e-09 2.69464e-09 3.66952e-09 3.49521e-09 3.5313e-09 3.60528e-09 9.59476e-09 9.59477e-09 2.97177e-09 2.97964e-09 9.5944e-09 9.5944e-09 9.5945e-09 9.59443e-09 9.59544e-09 9.5944e-09 6.05105e-09 6.07803e-09 9.5944e-09 9.5944e-09 9.5944e-09 9.5944e-09 9.5944e-09 1.18021e-08 1.18018e-08 9.5944e-09 9.59448e-09 9.59708e-09 9.64254e-09 1.0048e-08 1.00464e-08 9.64265e-09 9.59711e-09 9.59449e-09 9.5944e-09 9.5944e-09 1.26008e-08 9.5944e-09 9.5944e-09 9.5944e-09 9.59444e-09 9.59582e-09 9.59457e-09 9.59912e-09 9.62425e-09 9.91752e-09 9.6663e-09 1.13589e-08 1.01931e-08 
        </DataArray>
        <DataArray type="Float32" Name="F1_Alpha_SG_co2gas_mod.xml" format="ascii">
1 1 1 1 1 1 1 1 1 1 1 1 1 1 1 1 1 1 1 1 1 1 1 1 1 1 1 1 1 1 1 1 1 1 1 1 1 1 1 1 1 1 1 1 1 1 1 1 1 1 1 1 1 1 1 1 1 1 1 1 1 1 1 1 1 
        </DataArray>
        <DataArray type="Float32" Name="F1_Density_SG_co2gas_mod.xml" format="ascii">
109.47 108.532 123.428 116.781 423.185 424.452 178.197 181.928 449.305 452.993 383.814 383.802 525.664 517.01 106.125 106.533 380.275 395.051 285.364 300.352 297.144 290.673 106.134 106.134 356.342 355.35 106.138 106.138 106.137 106.137 106.126 106.138 170.035 169.258 106.138 106.138 106.138 106.138 106.138 85.9935 85.9954 106.138 106.137 106.108 105.598 101.264 101.281 105.597 106.107 106.137 106.138 106.138 80.4665 106.138 106.138 106.138 106.137 106.122 106.136 106.085 105.803 102.62 105.334 89.3998 99.7979 
        </DataArray>
        <DataArray type="Float32" Name="F1_Temperature_SG_co2gas_mod.xml" format="ascii">
467.329 467.043 471.848 470.592 375.48 375.63 480.194 480.584 377.223 378.071 354.873 354.873 365.593 365.115 466.382 466.49 421.412 421.583 472.501 445.833 445.485 472.68 466.384 466.384 409.211 409.207 466.385 466.385 466.385 466.385 466.382 466.385 486.546 488.782 466.385 466.385 466.385 466.385 466.385 460.917 460.917 466.385 466.385 466.377 466.243 465.092 465.094 466.243 466.377 466.385 466.385 466.385 469.004 466.385 466.385 466.385 466.385 466.381 466.385 466.371 466.297 465.45 466.176 461.794 464.815 
        </DataArray>
        <DataArray type="Float32" Name="F1_Mass fraction_SG_co2gas_mod.xml" format="ascii">
1 1 1 1 1 1 1 1 1 1 1 1 1 1 1 1 1 1 1 1 1 1 1 1 1 1 1 1 1 1 1 1 1 1 1 1 1 1 1 1 1 1 1 1 1 1 1 1 1 1 1 1 1 1 1 1 1 1 1 1 1 1 1 1 1 
        </DataArray>
        <DataArray type="Float32" Name="Density_Mixture" format="ascii">
109.47 108.532 123.428 116.781 423.185 424.452 178.197 181.928 449.305 452.993 383.814 383.802 525.664 517.01 106.125 106.533 380.275 395.051 285.364 300.352 297.144 290.673 106.134 106.134 356.342 355.35 106.138 106.138 106.137 106.137 106.126 106.138 170.035 169.258 106.138 106.138 106.138 106.138 106.138 85.9935 85.9954 106.138 106.137 106.108 105.598 101.264 101.281 105.597 106.107 106.137 106.138 106.138 80.4666 106.138 106.138 106.138 106.137 106.122 106.136 106.085 105.803 102.62 105.334 89.3998 99.7979 
        </DataArray>
        <DataArray type="Float32" Name="Pressure_Mixture" format="ascii">
6.51153e+06 6.44361e+06 7.53539e+06 7.06069e+06 2.20906e+07 2.21686e+07 1.14873e+07 1.17566e+07 2.3622e+07 2.38787e+07 1.88093e+07 1.88087e+07 2.69031e+07 2.64098e+07 6.27094e+06 6.30016e+06 2.22865e+07 2.31967e+07 1.86111e+07 1.84769e+07 1.82552e+07 1.89813e+07 6.27157e+06 6.27156e+06 2.01994e+07 2.01405e+07 6.27186e+06 6.27186e+06 6.27177e+06 6.27183e+06 6.27102e+06 6.27185e+06 1.10767e+07 1.10768e+07 6.27186e+06 6.27186e+06 6.27186e+06 6.27186e+06 6.27186e+06 4.84534e+06 4.84548e+06 6.27186e+06 6.27179e+06 6.2697e+06 6.23331e+06 5.92424e+06 5.9254e+06 6.23323e+06 6.26968e+06 6.27179e+06 6.27186e+06 6.27186e+06 4.57108e+06 6.27186e+06 6.27186e+06 6.27185e+06 6.27183e+06 6.27072e+06 6.27172e+06 6.26806e+06 6.24791e+06 6.02072e+06 6.21449e+06 5.08371e+06 5.82165e+06 
        </DataArray>
        <DataArray type="Float32" Name="Velocity_Mixture" NumberOfComponents="3" format="ascii">
9.03026 -0.235356 0 4.57713 1.11839 0 38.064 -3.13812 0 25.5568 -9.5632 0 320.344 10.9039 0 321.155 -13.1189 0 153.451 -7.19241 0 159.144 7.5836 0 309.361 44.0746 0 308.776 -43.5853 0 343.23 0.104338 0 343.232 -0.102413 0 292.957 -43.2616 0 294.449 45.8534 0 -0.04735 -0.219854 0 0.880681 -0.50231 0 281.359 -57.623 0 283.111 75.7984 0 250.775 -43.5355 0 256.948 11.6641 0 259.031 -5.91936 0 240.241 69.2469 0 -0.0678007 -0.0556595 0 -0.00379891 -0.00359796 0 286.07 -18.2755 0 286.349 19.7871 0 0 0 0 1.12084e-05 1.23217e-05 0 -0.00272438 -0.000811081 0 0.000909401 0.00456184 0 -0.0234536 0.0189013 0 -6.05751e-05 0.000102245 0 107.545 37.8483 0 136.808 -14.06 0 0 0 0 0 0 0 0 0 0 0 0 0 0 0 0 20.4782 -0.890211 0 20.4804 0.895225 0 0 -4.33065e-06 0 0.000404327 -0.00039044 0 0.014832 -0.00956162 0 0.293889 -0.116313 0 3.16893 -0.59623 0 3.2151 0.574713 0 0.308448 0.111623 0 0.015935 0.00926949 0 0.000450411 0.000386082 0 0 6.75802e-06 0 0 0 0 61.9151 0.00584081 0 0 0 0 0 0 0 0.000144644 0 0 0.00029224 3.62845e-05 0 0.0134759 0.0015389 0 0.00830601 -0.000247266 0 0.237226 -0.00631489 0 0.335006 0.0266056 0 4.5983 0.167282 0 3.62792 -0.0786253 0 33.9038 -0.00561486 0 26.6424 -0.214903 0 
        </DataArray>
        <DataArray type="Float32" Name="gradRho" format="ascii">
4.49907 2.76938 18.7075 19.2088 21.7043 22.4197 56.7964 58.8018 38.7438 46.131 27.3449 28.2309 17.1569 15.9843 0.592915 0.994317 43.4065 39.6765 73.3581 57.7038 59.2466 77.9325 0.137061 0.00379283 42.3194 40.8327 2.02281e-05 0.00013339 0.0040806 0.00486214 0.00414463 0.000502783 49.3139 46.6544 4.14719e-07 4.59046e-07 5.88451e-08 6.38362e-08 5.34067e-08 0.844251 0.844894 5.61164e-06 0.000164245 0.00348742 0.0371196 0.20539 0.206759 0.0368628 0.00338673 0.000156857 4.67862e-06 2.14971e-08 0.79698 1.92314e-06 2.89774e-06 0.00013414 0.000182563 0.00628737 0.00499589 0.100878 0.118384 1.07964 0.975433 3.96663 3.78105 
        </DataArray>
      </CellData>
    </Piece>
  </UnstructuredGrid>
</VTKFile>
