<?xml version="1.0"?>
<VTKFile type="UnstructuredGrid" version="0.1" byte_order="LittleEndian">
  <UnstructuredGrid>
    <Piece NumberOfPoints="50" NumberOfCells="65">
      <Points>
        <DataArray type="Float32" NumberOfComponents="3" format="ascii">
          0 5 0 0 -5 0 15 0.2 0 15 -0.2 0 35 0.2 0 35 -0.2 0 2.14286 4.31429 0 4.28571 3.62857 0 6.42857 2.94286 0 8.57143 2.25714 0 10.7143 1.57143 0 12.8571 0.885714 0 17.8571 0.2 0 20.7143 0.2 0 23.5714 0.2 0 26.4286 0.2 0 29.2857 0.2 0 32.1429 0.2 0 32.1429 -0.2 0 29.2857 -0.2 0 26.4286 -0.2 0 23.5714 -0.2 0 20.7143 -0.2 0 17.8571 -0.2 0 12.8571 -0.885714 0 10.7143 -1.57143 0 8.57143 -2.25714 0 6.42857 -2.94286 0 4.28571 -3.62857 0 2.14286 -4.31429 0 0 -2.5 0 0 -6.16307e-12 0 0 2.5 0 3.95974 -5.7158e-13 0 13.9286 -3.66374e-15 0 6.61813 2.81487e-12 0 2.86365 2.0434 0 2.86365 -2.0434 0 9.43036 1.987e-12 0 11.3926 2.79508e-14 0 4.83116 1.72297 0 4.83116 -1.72297 0 1.90629 -3.21031e-12 0 33.5714 0 0 16.4286 -1.80625e-18 0 25 6.93889e-18 0 19.2857 -6.93889e-18 0 30.7143 0 0 22.1429 0 0 27.8571 0 0 
        </DataArray>
      </Points>
      <Cells>
        <DataArray type="Int32" Name="connectivity" format="ascii">
          8 9 35 26 27 35 8 35 40 27 41 35 30 42 37 32 36 42 33 40 35 33 35 41 29 30 37 6 36 32 30 31 42 31 32 42 0 6 32 30 29 1 26 35 38 9 38 35 6 7 36 28 29 37 7 40 36 33 41 37 33 36 40 28 37 41 9 10 38 25 26 38 33 42 36 33 37 42 11 34 24 24 25 39 10 11 39 25 38 39 10 39 38 11 24 39 27 28 41 7 8 40 2 34 11 3 24 34 2 3 34 2 44 12 3 23 44 4 17 43 5 43 18 12 46 13 13 48 14 14 45 15 15 49 16 16 47 17 18 47 19 19 49 20 20 45 21 21 48 22 22 46 23 2 3 44 4 43 5 12 44 23 12 23 46 13 46 22 13 22 48 14 21 45 14 48 21 15 45 20 15 20 49 16 19 47 16 49 19 17 18 43 17 47 18 
        </DataArray>
        <DataArray type="Int32" Name="offsets" format="ascii">
          3 6 9 12 15 18 21 24 27 30 33 36 39 42 45 48 51 54 57 60 63 66 69 72 75 78 81 84 87 90 93 96 99 102 105 108 111 114 117 120 123 126 129 132 135 138 141 144 147 150 153 156 159 162 165 168 171 174 177 180 183 186 189 192 195 
        </DataArray>
        <DataArray type="UInt8" Name="types" format="ascii">
          5 5 5 5 5 5 5 5 5 5 5 5 5 5 5 5 5 5 5 5 5 5 5 5 5 5 5 5 5 5 5 5 5 5 5 5 5 5 5 5 5 5 5 5 5 5 5 5 5 5 5 5 5 5 5 5 5 5 5 5 5 5 5 5 5 
        </DataArray>
      </Cells>
      <CellData>
        <DataArray type="Float32" Name="F0_Alpha_SG_co2liq_mod.xml" format="ascii">
1.72681e-10 1.72682e-10 1.72672e-10 1.72678e-10 1.65884e-10 1.6601e-10 1.72473e-10 1.7247e-10 1.65974e-10 1.65626e-10 1.67743e-10 1.67743e-10 1.64686e-10 1.64956e-10 1.72682e-10 1.72682e-10 1.68405e-10 1.6726e-10 1.71248e-10 1.70586e-10 1.70496e-10 1.71592e-10 1.72682e-10 1.72682e-10 1.68324e-10 1.68303e-10 1.72682e-10 1.72682e-10 1.72682e-10 1.72682e-10 1.72682e-10 1.72682e-10 1.72681e-10 1.72586e-10 1.72682e-10 1.72682e-10 1.72682e-10 1.72682e-10 1.72682e-10 1.73126e-10 1.73126e-10 1.72682e-10 1.72682e-10 1.72682e-10 1.72685e-10 1.72741e-10 1.72741e-10 1.72685e-10 1.72682e-10 1.72682e-10 1.72682e-10 1.72682e-10 1.73188e-10 1.72682e-10 1.72682e-10 1.72682e-10 1.72682e-10 1.72682e-10 1.72682e-10 1.72682e-10 1.72683e-10 1.72718e-10 1.72687e-10 1.73032e-10 1.72769e-10 
        </DataArray>
        <DataArray type="Float32" Name="F0_Density_SG_co2liq_mod.xml" format="ascii">
5897.18 5897.15 5897.79 5897.37 6400.48 6392.68 5910.11 5910.26 6378.37 6398.53 6332.7 6332.72 6524.92 6507.32 5897.13 5897.13 6157.7 6226.45 5981.79 6021.22 6026.32 5961.19 5897.13 5897.13 6164.21 6165.08 5897.13 5897.13 5897.13 5897.13 5897.13 5897.13 5897.21 5903.13 5897.13 5897.13 5897.13 5897.13 5897.13 5867.58 5867.59 5897.13 5897.13 5897.13 5896.96 5893.38 5893.37 5896.95 5897.13 5897.13 5897.13 5897.13 5859.83 5897.13 5897.13 5897.13 5897.13 5897.13 5897.13 5897.12 5897.05 5894.81 5896.8 5874.11 5891.56 
        </DataArray>
        <DataArray type="Float32" Name="F0_Temperature_SG_co2liq_mod.xml" format="ascii">
41.7808 41.7807 41.7827 41.7814 42.3789 42.3751 41.8195 41.8199 42.368 42.3779 42.3435 42.3435 42.43 42.4237 41.7807 41.7807 42.2149 42.2733 41.9834 42.0504 42.0582 41.943 41.7807 41.7807 42.221 42.2218 41.7807 41.7807 41.7807 41.7807 41.7807 41.7807 41.7809 41.7991 41.7807 41.7807 41.7807 41.7807 41.7807 41.6744 41.6744 41.7807 41.7807 41.7807 41.7801 41.7687 41.7687 41.7801 41.7807 41.7807 41.7807 41.7807 41.6408 41.7807 41.7807 41.7807 41.7807 41.7807 41.7807 41.7806 41.7804 41.7733 41.7796 41.7005 41.7627 
        </DataArray>
        <DataArray type="Float32" Name="F0_Mass fraction_SG_co2liq_mod.xml" format="ascii">
9.59237e-09 9.59371e-09 9.56696e-09 9.58433e-09 2.8528e-09 2.87638e-09 9.0942e-09 9.0886e-09 2.99624e-09 2.9371e-09 2.86166e-09 2.8616e-09 2.37332e-09 2.41165e-09 9.59441e-09 9.59435e-09 4.72123e-09 4.20375e-09 7.19861e-09 6.45745e-09 6.37823e-09 7.66662e-09 9.5944e-09 9.5944e-09 4.64694e-09 4.64392e-09 9.5944e-09 9.5944e-09 9.5944e-09 9.5944e-09 9.5944e-09 9.5944e-09 9.59149e-09 9.35366e-09 9.5944e-09 9.5944e-09 9.5944e-09 9.5944e-09 9.5944e-09 1.11085e-08 1.11084e-08 9.5944e-09 9.5944e-09 9.59455e-09 9.60171e-09 9.75584e-09 9.75598e-09 9.60181e-09 9.59455e-09 9.5944e-09 9.5944e-09 9.5944e-09 1.18334e-08 9.5944e-09 9.5944e-09 9.5944e-09 9.5944e-09 9.59445e-09 9.5944e-09 9.59475e-09 9.5979e-09 9.69336e-09 9.60829e-09 1.07175e-08 9.83743e-09 
        </DataArray>
        <DataArray type="Float32" Name="F1_Alpha_SG_co2gas_mod.xml" format="ascii">
1 1 1 1 1 1 1 1 1 1 1 1 1 1 1 1 1 1 1 1 1 1 1 1 1 1 1 1 1 1 1 1 1 1 1 1 1 1 1 1 1 1 1 1 1 1 1 1 1 1 1 1 1 1 1 1 1 1 1 1 1 1 1 1 1 
        </DataArray>
        <DataArray type="Float32" Name="F1_Density_SG_co2gas_mod.xml" format="ascii">
106.161 106.146 106.448 106.251 372.174 368.953 112.086 112.156 353.323 360.819 371.207 371.215 452.769 445.098 106.138 106.138 219.644 247.74 142.301 159.062 161.089 133.422 106.138 106.138 223.283 223.433 106.138 106.138 106.138 106.138 106.138 106.138 106.171 108.92 106.138 106.138 106.138 106.138 106.138 91.4459 91.447 106.138 106.138 106.136 106.056 104.35 104.349 106.054 106.136 106.138 106.138 106.138 85.7619 106.138 106.138 106.138 106.138 106.137 106.138 106.134 106.098 105.035 105.982 94.8363 103.47 
        </DataArray>
        <DataArray type="Float32" Name="F1_Temperature_SG_co2gas_mod.xml" format="ascii">
466.391 466.387 466.468 466.416 392.238 391.929 468.351 468.365 402.107 403.625 360.884 360.885 370.477 369.996 466.385 466.385 464.983 463.41 477.416 477.334 477.627 477.029 466.385 466.385 462.83 463.249 466.385 466.385 466.385 466.385 466.385 466.385 466.412 467.29 466.385 466.385 466.385 466.385 466.385 462.453 462.454 466.385 466.385 466.385 466.364 465.914 465.913 466.363 466.385 466.385 466.385 466.385 469.577 466.385 466.385 466.385 466.385 466.385 466.385 466.384 466.375 466.094 466.344 463.33 465.72 
        </DataArray>
        <DataArray type="Float32" Name="F1_Mass fraction_SG_co2gas_mod.xml" format="ascii">
1 1 1 1 1 1 1 1 1 1 1 1 1 1 1 1 1 1 1 1 1 1 1 1 1 1 1 1 1 1 1 1 1 1 1 1 1 1 1 1 1 1 1 1 1 1 1 1 1 1 1 1 1 1 1 1 1 1 1 1 1 1 1 1 1 
        </DataArray>
        <DataArray type="Float32" Name="Density_Mixture" format="ascii">
106.161 106.146 106.448 106.251 372.174 368.953 112.086 112.156 353.323 360.819 371.207 371.215 452.769 445.098 106.138 106.138 219.644 247.74 142.301 159.062 161.089 133.422 106.138 106.138 223.283 223.433 106.138 106.138 106.138 106.138 106.138 106.138 106.171 108.92 106.138 106.138 106.138 106.138 106.138 91.4459 91.447 106.138 106.138 106.136 106.056 104.35 104.349 106.054 106.136 106.138 106.138 106.138 85.7619 106.138 106.138 106.138 106.138 106.137 106.138 106.134 106.098 105.035 105.982 94.8363 103.47 
        </DataArray>
        <DataArray type="Float32" Name="Pressure_Mixture" format="ascii">
6.27349e+06 6.27242e+06 6.29403e+06 6.27999e+06 2.02228e+07 2.00237e+07 6.70485e+06 6.70984e+06 1.96579e+07 2.01729e+07 1.8485e+07 1.84855e+07 2.33693e+07 2.29274e+07 6.27185e+06 6.2719e+06 1.38821e+07 1.57148e+07 8.93765e+06 1.00928e+07 1.02396e+07 8.31723e+06 6.27186e+06 6.27186e+06 1.40573e+07 1.40808e+07 6.27186e+06 6.27186e+06 6.27186e+06 6.27186e+06 6.27186e+06 6.27186e+06 6.27448e+06 6.47372e+06 6.27186e+06 6.27186e+06 6.27186e+06 6.27186e+06 6.27186e+06 5.22906e+06 5.22913e+06 6.27186e+06 6.27186e+06 6.27174e+06 6.26598e+06 6.1442e+06 6.14409e+06 6.2659e+06 6.27174e+06 6.27186e+06 6.27186e+06 6.27186e+06 4.9373e+06 6.27186e+06 6.27186e+06 6.27186e+06 6.27186e+06 6.27181e+06 6.27185e+06 6.27158e+06 6.26904e+06 6.19306e+06 6.26069e+06 5.4678e+06 6.08197e+06 
        </DataArray>
        <DataArray type="Float32" Name="Velocity_Mixture" NumberOfComponents="3" format="ascii">
0.0580949 0.00193853 0 0.0170553 0.00126694 0 0.615053 0.212276 0 0.293087 -0.600651 0 299.435 0.572908 0 300.884 1.11035 0 15.3069 -3.09259 0 15.6044 2.95529 0 292.556 44.3453 0 289.883 -39.5405 0 339.652 0.170963 0 339.647 -0.174114 0 304.847 -42.1722 0 303.876 49.6457 0 -4.44156e-05 1.62524e-06 0 0.000938524 -0.000789982 0 197.263 -26.4476 0 192.205 61.4175 0 84.1254 -12.7869 0 119.875 -14.436 0 118.094 12.1411 0 53.1242 10.7458 0 -7.7428e-05 -3.34404e-05 0 1.43446e-05 0 0 206.796 -23.5077 0 208.298 26.0258 0 0 0 0 0 0 0 0 0 0 0 0 0 -4.05255e-06 1.12426e-06 0 0 0 0 0.249058 -0.523192 0 6.91525 0.838823 0 0 0 0 0 0 0 0 0 0 0 0 0 0 0 0 11.4495 -1.19765 0 11.4495 1.19923 0 0 0 0 0 -8.06651e-06 0 0.000685395 -0.000863825 0 0.0383779 -0.0304454 0 0.948231 -0.389399 0 1.00392 0.371826 0 0.0417708 0.0295512 0 0.000776223 0.000862903 0 0 1.03979e-05 0 0 0 0 0 0 0 50.2764 0.00170181 0 0 0 0 0 0 0 0 0 0 0 0 0 0.000403185 6.73423e-05 0 0.000169119 0 0 0.0163873 -0.000551025 0 0.0300012 0.00423122 0 1.03085 0.105318 0 0.69348 -0.0200362 0 16.09 -0.00342083 0 12.2162 -0.298171 0 
        </DataArray>
        <DataArray type="Float32" Name="gradRho" format="ascii">
0.0863606 0.0317668 1.40975 1.69182 48.482 48.7412 19.9022 19.1519 56.9789 70.575 0.67064 1.56966 21.7085 21.667 0.00202292 0.00640129 61.7961 58.0021 33.8187 38.8594 37.9338 41.1654 0.000191883 2.91755e-05 69.4835 71.2366 3.92136e-09 4.80066e-07 7.99076e-07 5.84592e-06 8.95374e-06 1.92068e-07 9.52921 11.9725 0 0 0 1.5947e-10 1.5947e-10 0.881267 0.88164 4.52449e-08 7.28044e-06 0.000405019 0.0116321 0.123603 0.123295 0.0112265 0.000379355 6.07294e-06 3.81766e-08 0 0.819572 5.90491e-09 1.21077e-08 1.50774e-06 2.79715e-06 0.000301264 0.000200993 0.0126114 0.0165808 0.397172 0.338358 3.34753 3.10629 
        </DataArray>
      </CellData>
    </Piece>
  </UnstructuredGrid>
</VTKFile>
