<?xml version="1.0"?>
<VTKFile type="UnstructuredGrid" version="0.1" byte_order="LittleEndian">
  <UnstructuredGrid>
    <Piece NumberOfPoints="50" NumberOfCells="65">
      <Points>
        <DataArray type="Float32" NumberOfComponents="3" format="ascii">
          0 5 0 0 -5 0 15 0.2 0 15 -0.2 0 35 0.2 0 35 -0.2 0 2.14286 4.31429 0 4.28571 3.62857 0 6.42857 2.94286 0 8.57143 2.25714 0 10.7143 1.57143 0 12.8571 0.885714 0 17.8571 0.2 0 20.7143 0.2 0 23.5714 0.2 0 26.4286 0.2 0 29.2857 0.2 0 32.1429 0.2 0 32.1429 -0.2 0 29.2857 -0.2 0 26.4286 -0.2 0 23.5714 -0.2 0 20.7143 -0.2 0 17.8571 -0.2 0 12.8571 -0.885714 0 10.7143 -1.57143 0 8.57143 -2.25714 0 6.42857 -2.94286 0 4.28571 -3.62857 0 2.14286 -4.31429 0 0 -2.5 0 0 -6.16307e-12 0 0 2.5 0 3.95974 -5.7158e-13 0 13.9286 -3.66374e-15 0 6.61813 2.81487e-12 0 2.86365 2.0434 0 2.86365 -2.0434 0 9.43036 1.987e-12 0 11.3926 2.79508e-14 0 4.83116 1.72297 0 4.83116 -1.72297 0 1.90629 -3.21031e-12 0 33.5714 0 0 16.4286 -1.80625e-18 0 25 6.93889e-18 0 19.2857 -6.93889e-18 0 30.7143 0 0 22.1429 0 0 27.8571 0 0 
        </DataArray>
      </Points>
      <Cells>
        <DataArray type="Int32" Name="connectivity" format="ascii">
          8 9 35 26 27 35 8 35 40 27 41 35 30 42 37 32 36 42 33 40 35 33 35 41 29 30 37 6 36 32 30 31 42 31 32 42 0 6 32 30 29 1 26 35 38 9 38 35 6 7 36 28 29 37 7 40 36 33 41 37 33 36 40 28 37 41 9 10 38 25 26 38 33 42 36 33 37 42 11 34 24 24 25 39 10 11 39 25 38 39 10 39 38 11 24 39 27 28 41 7 8 40 2 34 11 3 24 34 2 3 34 2 44 12 3 23 44 4 17 43 5 43 18 12 46 13 13 48 14 14 45 15 15 49 16 16 47 17 18 47 19 19 49 20 20 45 21 21 48 22 22 46 23 2 3 44 4 43 5 12 44 23 12 23 46 13 46 22 13 22 48 14 21 45 14 48 21 15 45 20 15 20 49 16 19 47 16 49 19 17 18 43 17 47 18 
        </DataArray>
        <DataArray type="Int32" Name="offsets" format="ascii">
          3 6 9 12 15 18 21 24 27 30 33 36 39 42 45 48 51 54 57 60 63 66 69 72 75 78 81 84 87 90 93 96 99 102 105 108 111 114 117 120 123 126 129 132 135 138 141 144 147 150 153 156 159 162 165 168 171 174 177 180 183 186 189 192 195 
        </DataArray>
        <DataArray type="UInt8" Name="types" format="ascii">
          5 5 5 5 5 5 5 5 5 5 5 5 5 5 5 5 5 5 5 5 5 5 5 5 5 5 5 5 5 5 5 5 5 5 5 5 5 5 5 5 5 5 5 5 5 5 5 5 5 5 5 5 5 5 5 5 5 5 5 5 5 5 5 5 5 
        </DataArray>
      </Cells>
      <CellData>
        <DataArray type="Float32" Name="F0_Alpha_SG_co2liq_mod.xml" format="ascii">
1.72682e-10 1.72682e-10 1.72682e-10 1.72682e-10 1.68951e-10 1.68967e-10 1.72682e-10 1.72682e-10 1.69726e-10 1.69744e-10 1.68284e-10 1.68283e-10 1.67247e-10 1.67337e-10 1.72682e-10 1.72682e-10 1.72325e-10 1.72165e-10 1.72656e-10 1.72629e-10 1.72628e-10 1.72715e-10 1.72682e-10 1.72682e-10 1.72265e-10 1.72257e-10 1.72682e-10 1.72682e-10 1.72682e-10 1.72682e-10 1.72682e-10 1.72682e-10 1.72687e-10 1.72682e-10 1.72682e-10 1.72682e-10 1.72682e-10 1.72682e-10 1.72682e-10 1.72922e-10 1.72922e-10 1.72682e-10 1.72682e-10 1.72682e-10 1.72682e-10 1.72689e-10 1.7269e-10 1.72682e-10 1.72682e-10 1.72682e-10 1.72682e-10 1.72682e-10 1.73024e-10 1.72682e-10 1.72682e-10 1.72682e-10 1.72682e-10 1.72682e-10 1.72682e-10 1.72682e-10 1.72682e-10 1.72685e-10 1.72682e-10 1.72829e-10 1.72699e-10 
        </DataArray>
        <DataArray type="Float32" Name="F0_Density_SG_co2liq_mod.xml" format="ascii">
5897.13 5897.13 5897.12 5897.13 6147.98 6147.07 5897.12 5897.13 6096.26 6094.31 6263.37 6263.42 6320.69 6314.76 5897.13 5897.13 5919.01 5928.79 5898.77 5900.49 5900.57 5894.99 5897.13 5897.13 5922.23 5922.68 5897.13 5897.13 5897.13 5897.13 5897.13 5897.13 5896.82 5897.1 5897.13 5897.13 5897.13 5897.13 5897.13 5881.51 5881.51 5897.13 5897.13 5897.13 5897.13 5896.66 5896.64 5897.13 5897.13 5897.13 5897.13 5897.13 5872.37 5897.13 5897.13 5897.13 5897.13 5897.13 5897.13 5897.13 5897.13 5896.96 5897.12 5887.67 5896.04 
        </DataArray>
        <DataArray type="Float32" Name="F0_Temperature_SG_co2liq_mod.xml" format="ascii">
41.7807 41.7807 41.7806 41.7807 42.2056 42.2047 41.7807 41.7807 42.1508 42.1485 42.3 42.3001 42.3365 42.333 41.7807 41.7807 41.844 41.8694 41.7858 41.7911 41.7913 41.7739 41.7807 41.7807 41.8526 41.8537 41.7807 41.7807 41.7807 41.7807 41.7807 41.7807 41.7797 41.7806 41.7807 41.7807 41.7807 41.7807 41.7807 41.7282 41.7282 41.7807 41.7807 41.7807 41.7807 41.7792 41.7791 41.7807 41.7807 41.7807 41.7807 41.7807 41.6937 41.7807 41.7807 41.7807 41.7807 41.7807 41.7807 41.7807 41.7807 41.7801 41.7806 41.7497 41.7772 
        </DataArray>
        <DataArray type="Float32" Name="F0_Mass fraction_SG_co2liq_mod.xml" format="ascii">
9.59441e-09 9.59438e-09 9.59498e-09 9.5942e-09 4.53411e-09 4.54064e-09 9.59462e-09 9.59454e-09 5.06146e-09 5.09357e-09 3.28329e-09 3.28306e-09 3.09549e-09 3.11906e-09 9.5944e-09 9.5944e-09 8.79258e-09 8.47715e-09 9.52642e-09 9.45658e-09 9.45346e-09 9.68583e-09 9.5944e-09 9.5944e-09 8.70284e-09 8.68858e-09 9.5944e-09 9.5944e-09 9.5944e-09 9.5944e-09 9.5944e-09 9.5944e-09 9.60753e-09 9.59573e-09 9.5944e-09 9.5944e-09 9.5944e-09 9.5944e-09 9.5944e-09 1.03192e-08 1.03192e-08 9.5944e-09 9.5944e-09 9.5944e-09 9.59454e-09 9.61429e-09 9.61496e-09 9.59456e-09 9.5944e-09 9.5944e-09 9.5944e-09 9.5944e-09 1.09475e-08 9.5944e-09 9.5944e-09 9.5944e-09 9.5944e-09 9.5944e-09 9.5944e-09 9.5944e-09 9.59443e-09 9.60172e-09 9.5949e-09 1.00157e-08 9.64057e-09 
        </DataArray>
        <DataArray type="Float32" Name="F1_Alpha_SG_co2gas_mod.xml" format="ascii">
1 1 1 1 1 1 1 1 1 1 1 1 1 1 1 1 1 1 1 1 1 1 1 1 1 1 1 1 1 1 1 1 1 1 1 1 1 1 1 1 1 1 1 1 1 1 1 1 1 1 1 1 1 1 1 1 1 1 1 1 1 1 1 1 1 
        </DataArray>
        <DataArray type="Float32" Name="F1_Density_SG_co2gas_mod.xml" format="ascii">
106.138 106.138 106.131 106.14 229.087 228.746 106.135 106.136 204.426 203.094 321.026 321.051 341.502 338.785 106.138 106.138 116.006 120.41 106.909 107.713 107.749 105.118 106.138 106.138 117.225 117.422 106.138 106.138 106.138 106.138 106.138 106.138 105.99 106.123 106.138 106.138 106.138 106.138 106.138 98.5581 98.5582 106.138 106.138 106.138 106.136 105.914 105.907 106.136 106.138 106.138 106.138 106.138 92.812 106.138 106.138 106.138 106.138 106.138 106.138 106.138 106.137 106.055 106.132 101.596 105.62 
        </DataArray>
        <DataArray type="Float32" Name="F1_Temperature_SG_co2gas_mod.xml" format="ascii">
466.385 466.385 466.384 466.386 437.896 437.809 466.385 466.385 442.938 444.007 378.512 378.515 385.992 385.96 466.385 466.385 469.838 470.693 466.599 466.845 466.853 466.123 466.385 466.385 471.096 471.161 466.385 466.385 466.385 466.385 466.385 466.385 466.346 466.381 466.385 466.385 466.385 466.385 466.385 464.396 464.396 466.385 466.385 466.385 466.385 466.326 466.324 466.385 466.385 466.385 466.385 466.385 468.739 466.385 466.385 466.385 466.385 466.385 466.385 466.385 466.385 466.364 466.384 465.181 466.252 
        </DataArray>
        <DataArray type="Float32" Name="F1_Mass fraction_SG_co2gas_mod.xml" format="ascii">
1 1 1 1 1 1 1 1 1 1 1 1 1 1 1 1 1 1 1 1 1 1 1 1 1 1 1 1 1 1 1 1 1 1 1 1 1 1 1 1 1 1 1 1 1 1 1 1 1 1 1 1 1 1 1 1 1 1 1 1 1 1 1 1 1 
        </DataArray>
        <DataArray type="Float32" Name="Density_Mixture" format="ascii">
106.138 106.138 106.131 106.14 229.087 228.746 106.135 106.136 204.426 203.094 321.026 321.051 341.502 338.785 106.138 106.138 116.006 120.41 106.909 107.713 107.749 105.118 106.138 106.138 117.225 117.422 106.138 106.138 106.138 106.138 106.138 106.138 105.99 106.123 106.138 106.138 106.138 106.138 106.138 98.5581 98.5582 106.138 106.138 106.138 106.136 105.914 105.907 106.136 106.138 106.138 106.138 106.138 92.812 106.138 106.138 106.138 106.138 106.138 106.138 106.138 106.137 106.055 106.132 101.596 105.62 
        </DataArray>
        <DataArray type="Float32" Name="Pressure_Mixture" format="ascii">
6.27185e+06 6.27187e+06 6.27139e+06 6.27202e+06 1.36197e+07 1.35952e+07 6.27168e+06 6.27174e+06 1.22073e+07 1.21533e+07 1.66847e+07 1.66862e+07 1.81748e+07 1.80215e+07 6.27186e+06 6.27186e+06 6.99527e+06 7.30934e+06 6.32716e+06 6.38524e+06 6.3878e+06 6.19911e+06 6.27186e+06 6.27186e+06 7.09945e+06 7.11392e+06 6.27186e+06 6.27186e+06 6.27186e+06 6.27186e+06 6.27186e+06 6.27186e+06 6.2613e+06 6.27079e+06 6.27186e+06 6.27186e+06 6.27186e+06 6.27186e+06 6.27186e+06 5.73235e+06 5.73235e+06 6.27186e+06 6.27186e+06 6.27186e+06 6.27174e+06 6.25588e+06 6.25534e+06 6.27173e+06 6.27186e+06 6.27186e+06 6.27186e+06 6.27186e+06 5.40477e+06 6.27186e+06 6.27186e+06 6.27186e+06 6.27186e+06 6.27186e+06 6.27186e+06 6.27186e+06 6.27183e+06 6.26597e+06 6.27146e+06 5.94786e+06 6.23493e+06 
        </DataArray>
        <DataArray type="Float32" Name="Velocity_Mixture" NumberOfComponents="3" format="ascii">
-0.000330535 -4.09458e-06 0 0.000488158 4.27893e-05 0 -0.0113608 0.0127152 0 0.00350777 0.00644919 0 207.959 -16.982 0 208.397 18.132 0 -0.00455768 0.00344196 0 -0.00380403 -0.00180279 0 185.737 43.8003 0 183.51 -36.7755 0 316.694 0.873465 0 316.679 -0.882924 0 295.204 -31.2627 0 289.214 49.9974 0 0 0 0 0 0 0 26.9257 0.664293 0 25.2535 9.22731 0 1.69301 -0.934942 0 3.88555 -1.55955 0 3.80686 1.56742 0 -2.0043 -2.51983 0 0 0 0 0 0 0 31.1206 -7.23003 0 31.6259 7.86263 0 0 0 0 0 0 0 0 0 0 0 0 0 0 0 0 0 0 0 -0.244603 -0.0119195 0 -0.0812225 -0.0288116 0 0 0 0 0 0 0 0 0 0 0 0 0 0 0 0 4.49446 -1.44896 0 4.49446 1.44897 0 0 0 0 0 0 0 0 0 0 0.000608789 -0.00131864 0 0.0932563 -0.11546 0 0.106143 0.112293 0 0.000733212 0.00138797 0 0 0 0 0 0 0 0 0 0 0 0 0 31.3455 8.62735e-06 0 0 0 0 0 0 0 0 0 0 0 0 0 0 0 0 0 0 0 5.43793e-05 0 0 0.000223822 4.74838e-05 0 0.0533519 0.0107417 0 0.0211721 -0.000823122 0 3.76314 -0.000136612 0 2.20115 -0.0815118 0 
        </DataArray>
        <DataArray type="Float32" Name="gradRho" format="ascii">
0.00187149 0.00062898 0.00416221 0.0448559 62.6217 62.7444 0.622805 0.607271 58.1272 60.048 63.8556 64.1048 32.6767 31.7206 6.5217e-05 3.61662e-05 30.5015 30.6699 2.92312 4.13488 3.79597 3.898 1.20199e-06 1.84688e-06 41.1753 41.3248 0 8.13568e-10 1.10595e-10 7.17723e-08 7.01081e-09 0 0.323429 0.274175 0 0 0 0 0 0.941875 0.941887 0 5.5683e-09 3.68126e-06 0.000801883 0.0502738 0.0473176 0.00072884 3.22931e-06 4.72275e-09 0 0 0.828443 0 0 0 9.65061e-10 7.16757e-07 2.79763e-07 0.000127377 0.000267088 0.0409655 0.0272262 1.70053 1.43643 
        </DataArray>
      </CellData>
    </Piece>
  </UnstructuredGrid>
</VTKFile>
