<?xml version="1.0"?>
<VTKFile type="UnstructuredGrid" version="0.1" byte_order="LittleEndian">
  <UnstructuredGrid>
    <Piece NumberOfPoints="50" NumberOfCells="65">
      <Points>
        <DataArray type="Float32" NumberOfComponents="3" format="ascii">
          0 5 0 0 -5 0 15 0.2 0 15 -0.2 0 35 0.2 0 35 -0.2 0 2.14286 4.31429 0 4.28571 3.62857 0 6.42857 2.94286 0 8.57143 2.25714 0 10.7143 1.57143 0 12.8571 0.885714 0 17.8571 0.2 0 20.7143 0.2 0 23.5714 0.2 0 26.4286 0.2 0 29.2857 0.2 0 32.1429 0.2 0 32.1429 -0.2 0 29.2857 -0.2 0 26.4286 -0.2 0 23.5714 -0.2 0 20.7143 -0.2 0 17.8571 -0.2 0 12.8571 -0.885714 0 10.7143 -1.57143 0 8.57143 -2.25714 0 6.42857 -2.94286 0 4.28571 -3.62857 0 2.14286 -4.31429 0 0 -2.5 0 0 -6.16307e-12 0 0 2.5 0 3.95974 -5.7158e-13 0 13.9286 -3.66374e-15 0 6.61813 2.81487e-12 0 2.86365 2.0434 0 2.86365 -2.0434 0 9.43036 1.987e-12 0 11.3926 2.79508e-14 0 4.83116 1.72297 0 4.83116 -1.72297 0 1.90629 -3.21031e-12 0 33.5714 0 0 16.4286 -1.80625e-18 0 25 6.93889e-18 0 19.2857 -6.93889e-18 0 30.7143 0 0 22.1429 0 0 27.8571 0 0 
        </DataArray>
      </Points>
      <Cells>
        <DataArray type="Int32" Name="connectivity" format="ascii">
          8 9 35 26 27 35 8 35 40 27 41 35 30 42 37 32 36 42 33 40 35 33 35 41 29 30 37 6 36 32 30 31 42 31 32 42 0 6 32 30 29 1 26 35 38 9 38 35 6 7 36 28 29 37 7 40 36 33 41 37 33 36 40 28 37 41 9 10 38 25 26 38 33 42 36 33 37 42 11 34 24 24 25 39 10 11 39 25 38 39 10 39 38 11 24 39 27 28 41 7 8 40 2 34 11 3 24 34 2 3 34 2 44 12 3 23 44 4 17 43 5 43 18 12 46 13 13 48 14 14 45 15 15 49 16 16 47 17 18 47 19 19 49 20 20 45 21 21 48 22 22 46 23 2 3 44 4 43 5 12 44 23 12 23 46 13 46 22 13 22 48 14 21 45 14 48 21 15 45 20 15 20 49 16 19 47 16 49 19 17 18 43 17 47 18 
        </DataArray>
        <DataArray type="Int32" Name="offsets" format="ascii">
          3 6 9 12 15 18 21 24 27 30 33 36 39 42 45 48 51 54 57 60 63 66 69 72 75 78 81 84 87 90 93 96 99 102 105 108 111 114 117 120 123 126 129 132 135 138 141 144 147 150 153 156 159 162 165 168 171 174 177 180 183 186 189 192 195 
        </DataArray>
        <DataArray type="UInt8" Name="types" format="ascii">
          5 5 5 5 5 5 5 5 5 5 5 5 5 5 5 5 5 5 5 5 5 5 5 5 5 5 5 5 5 5 5 5 5 5 5 5 5 5 5 5 5 5 5 5 5 5 5 5 5 5 5 5 5 5 5 5 5 5 5 5 5 5 5 5 5 
        </DataArray>
      </Cells>
      <CellData>
        <DataArray type="Float32" Name="F0_Alpha_SG_co2liq_mod.xml" format="ascii">
1.72682e-10 1.72682e-10 1.72682e-10 1.72682e-10 1.72681e-10 1.72681e-10 1.72682e-10 1.72682e-10 1.72682e-10 1.72682e-10 1.72591e-10 1.72591e-10 1.72601e-10 1.72601e-10 1.72682e-10 1.72682e-10 1.72682e-10 1.72682e-10 1.72682e-10 1.72682e-10 1.72682e-10 1.72682e-10 1.72682e-10 1.72682e-10 1.72682e-10 1.72682e-10 1.72682e-10 1.72682e-10 1.72682e-10 1.72682e-10 1.72682e-10 1.72682e-10 1.72682e-10 1.72682e-10 1.72682e-10 1.72682e-10 1.72682e-10 1.72682e-10 1.72682e-10 1.72682e-10 1.72682e-10 1.72682e-10 1.72682e-10 1.72682e-10 1.72682e-10 1.72682e-10 1.72682e-10 1.72682e-10 1.72682e-10 1.72682e-10 1.72682e-10 1.72682e-10 1.72693e-10 1.72682e-10 1.72682e-10 1.72682e-10 1.72682e-10 1.72682e-10 1.72682e-10 1.72682e-10 1.72682e-10 1.72682e-10 1.72682e-10 1.72682e-10 1.72682e-10 
        </DataArray>
        <DataArray type="Float32" Name="F0_Density_SG_co2liq_mod.xml" format="ascii">
5897.13 5897.13 5897.13 5897.13 5897.17 5897.17 5897.13 5897.13 5897.16 5897.16 5904.51 5904.51 5903.7 5903.7 5897.13 5897.13 5897.13 5897.13 5897.13 5897.13 5897.13 5897.13 5897.13 5897.13 5897.13 5897.13 5897.13 5897.13 5897.13 5897.13 5897.13 5897.13 5897.13 5897.13 5897.13 5897.13 5897.13 5897.13 5897.13 5897.12 5897.12 5897.13 5897.13 5897.13 5897.13 5897.13 5897.13 5897.13 5897.13 5897.13 5897.13 5897.13 5896.37 5897.13 5897.13 5897.13 5897.13 5897.13 5897.13 5897.13 5897.13 5897.13 5897.13 5897.13 5897.13 
        </DataArray>
        <DataArray type="Float32" Name="F0_Temperature_SG_co2liq_mod.xml" format="ascii">
41.7807 41.7807 41.7807 41.7807 41.7808 41.7808 41.7807 41.7807 41.7808 41.7808 41.8033 41.8033 41.8009 41.8009 41.7807 41.7807 41.7807 41.7807 41.7807 41.7807 41.7807 41.7807 41.7807 41.7807 41.7807 41.7807 41.7807 41.7807 41.7807 41.7807 41.7807 41.7807 41.7807 41.7807 41.7807 41.7807 41.7807 41.7807 41.7807 41.7806 41.7806 41.7807 41.7807 41.7807 41.7807 41.7807 41.7807 41.7807 41.7807 41.7807 41.7807 41.7807 41.7783 41.7807 41.7807 41.7807 41.7807 41.7807 41.7807 41.7807 41.7807 41.7807 41.7807 41.7807 41.7807 
        </DataArray>
        <DataArray type="Float32" Name="F0_Mass fraction_SG_co2liq_mod.xml" format="ascii">
9.5944e-09 9.5944e-09 9.5944e-09 9.5944e-09 9.59283e-09 9.59283e-09 9.5944e-09 9.5944e-09 9.59328e-09 9.59328e-09 9.22446e-09 9.22446e-09 9.26326e-09 9.26326e-09 9.5944e-09 9.5944e-09 9.5944e-09 9.5944e-09 9.5944e-09 9.5944e-09 9.5944e-09 9.5944e-09 9.5944e-09 9.5944e-09 9.5944e-09 9.5944e-09 9.5944e-09 9.5944e-09 9.5944e-09 9.5944e-09 9.5944e-09 9.5944e-09 9.5944e-09 9.5944e-09 9.5944e-09 9.5944e-09 9.5944e-09 9.5944e-09 9.5944e-09 9.59475e-09 9.59475e-09 9.5944e-09 9.5944e-09 9.5944e-09 9.5944e-09 9.5944e-09 9.5944e-09 9.5944e-09 9.5944e-09 9.5944e-09 9.5944e-09 9.5944e-09 9.62807e-09 9.5944e-09 9.5944e-09 9.5944e-09 9.5944e-09 9.5944e-09 9.5944e-09 9.5944e-09 9.5944e-09 9.5944e-09 9.5944e-09 9.5944e-09 9.5944e-09 
        </DataArray>
        <DataArray type="Float32" Name="F1_Alpha_SG_co2gas_mod.xml" format="ascii">
1 1 1 1 1 1 1 1 1 1 1 1 1 1 1 1 1 1 1 1 1 1 1 1 1 1 1 1 1 1 1 1 1 1 1 1 1 1 1 1 1 1 1 1 1 1 1 1 1 1 1 1 1 1 1 1 1 1 1 1 1 1 1 1 1 
        </DataArray>
        <DataArray type="Float32" Name="F1_Density_SG_co2gas_mod.xml" format="ascii">
106.138 106.138 106.138 106.138 106.155 106.155 106.138 106.138 106.15 106.15 110.474 110.474 110.003 110.003 106.138 106.138 106.138 106.138 106.138 106.138 106.138 106.138 106.138 106.138 106.138 106.138 106.138 106.138 106.138 106.138 106.138 106.138 106.138 106.138 106.138 106.138 106.138 106.138 106.138 106.134 106.134 106.138 106.138 106.138 106.138 106.138 106.138 106.138 106.138 106.138 106.138 106.138 105.76 106.138 106.138 106.138 106.138 106.138 106.138 106.138 106.138 106.138 106.138 106.138 106.138 
        </DataArray>
        <DataArray type="Float32" Name="F1_Temperature_SG_co2gas_mod.xml" format="ascii">
466.385 466.385 466.385 466.385 466.39 466.39 466.385 466.385 466.388 466.388 463.591 463.591 463.895 463.895 466.385 466.385 466.385 466.385 466.385 466.385 466.385 466.385 466.385 466.385 466.385 466.385 466.385 466.385 466.385 466.385 466.385 466.385 466.385 466.385 466.385 466.385 466.385 466.385 466.385 466.384 466.384 466.385 466.385 466.385 466.385 466.385 466.385 466.385 466.385 466.385 466.385 466.385 466.374 466.385 466.385 466.385 466.385 466.385 466.385 466.385 466.385 466.385 466.385 466.385 466.385 
        </DataArray>
        <DataArray type="Float32" Name="F1_Mass fraction_SG_co2gas_mod.xml" format="ascii">
1 1 1 1 1 1 1 1 1 1 1 1 1 1 1 1 1 1 1 1 1 1 1 1 1 1 1 1 1 1 1 1 1 1 1 1 1 1 1 1 1 1 1 1 1 1 1 1 1 1 1 1 1 1 1 1 1 1 1 1 1 1 1 1 1 
        </DataArray>
        <DataArray type="Float32" Name="Density_Mixture" format="ascii">
106.138 106.138 106.138 106.138 106.155 106.155 106.138 106.138 106.15 106.15 110.474 110.474 110.003 110.003 106.138 106.138 106.138 106.138 106.138 106.138 106.138 106.138 106.138 106.138 106.138 106.138 106.138 106.138 106.138 106.138 106.138 106.138 106.138 106.138 106.138 106.138 106.138 106.138 106.138 106.134 106.134 106.138 106.138 106.138 106.138 106.138 106.138 106.138 106.138 106.138 106.138 106.138 105.76 106.138 106.138 106.138 106.138 106.138 106.138 106.138 106.138 106.138 106.138 106.138 106.138 
        </DataArray>
        <DataArray type="Float32" Name="Pressure_Mixture" format="ascii">
6.27186e+06 6.27186e+06 6.27186e+06 6.27186e+06 6.27311e+06 6.27311e+06 6.27186e+06 6.27186e+06 6.27276e+06 6.27276e+06 6.51968e+06 6.51968e+06 6.49292e+06 6.49292e+06 6.27186e+06 6.27186e+06 6.27186e+06 6.27186e+06 6.27186e+06 6.27186e+06 6.27186e+06 6.27186e+06 6.27186e+06 6.27186e+06 6.27186e+06 6.27186e+06 6.27186e+06 6.27186e+06 6.27186e+06 6.27186e+06 6.27186e+06 6.27186e+06 6.27186e+06 6.27186e+06 6.27186e+06 6.27186e+06 6.27186e+06 6.27186e+06 6.27186e+06 6.27158e+06 6.27158e+06 6.27186e+06 6.27186e+06 6.27186e+06 6.27186e+06 6.27186e+06 6.27186e+06 6.27186e+06 6.27186e+06 6.27186e+06 6.27186e+06 6.27186e+06 6.2462e+06 6.27186e+06 6.27186e+06 6.27186e+06 6.27186e+06 6.27186e+06 6.27186e+06 6.27186e+06 6.27186e+06 6.27186e+06 6.27186e+06 6.27186e+06 6.27186e+06 
        </DataArray>
        <DataArray type="Float32" Name="Velocity_Mixture" NumberOfComponents="3" format="ascii">
0 0 0 0 0 0 0 0 0 0 0 0 0.0369448 -0.0265666 0 0.0369448 0.0265666 0 0 0 0 0 0 0 0.0216439 0.0239354 0 0.021636 -0.0239252 0 16.9767 0.00789165 0 16.9767 -0.00789165 0 15.1764 -0.0110942 0 15.1707 0.0289594 0 0 0 0 0 0 0 -2.1634e-05 -6.94621e-06 0 -2.15058e-05 6.7185e-06 0 0 0 0 0 0 0 0 0 0 0 0 0 0 0 0 0 0 0 -3.34061e-05 1.5585e-05 0 -3.34061e-05 -1.5585e-05 0 0 0 0 0 0 0 0 0 0 0 0 0 0 0 0 0 0 0 0 0 0 0 0 0 0 0 0 0 0 0 0 0 0 0 0 0 0 0 0 0.00136014 -0.00924178 0 0.00136014 0.00924178 0 0 0 0 0 0 0 0 0 0 0 0 0 0 0 0 0 0 0 0 0 0 0 0 0 0 0 0 0 0 0 0 0 0 0.370312 0 0 0 0 0 0 0 0 0 0 0 0 0 0 0 0 0 0 0 0 0 0 0 0 0 0 0 0 0 0 0 0 6.24158e-06 0 0 0 0 0 
        </DataArray>
        <DataArray type="Float32" Name="gradRho" format="ascii">
0 0 0 0 1.3003 1.3003 2.02584e-09 2.02584e-09 1.03318 1.03317 2.9996 2.9996 0.909572 0.909571 0 0 0.00416892 0.00417054 2.79388e-06 4.97701e-06 4.97298e-06 2.81333e-06 0 0 0.00605967 0.00605967 0 0 0 0 0 0 5.44383e-09 1.72763e-08 0 0 0 0 0 0.0990797 0.0990797 0 0 0 0 1.95733e-09 1.94854e-09 0 0 0 0 0 0.0539109 0 0 0 0 0 0 0 0 9.17165e-12 0 0.000373528 2.46348e-06 
        </DataArray>
      </CellData>
    </Piece>
  </UnstructuredGrid>
</VTKFile>
