<?xml version="1.0"?>
<VTKFile type="UnstructuredGrid" version="0.1" byte_order="LittleEndian">
  <UnstructuredGrid>
    <Piece NumberOfPoints="50" NumberOfCells="65">
      <Points>
        <DataArray type="Float32" NumberOfComponents="3" format="ascii">
          0 5 0 0 -5 0 15 0.2 0 15 -0.2 0 35 0.2 0 35 -0.2 0 2.14286 4.31429 0 4.28571 3.62857 0 6.42857 2.94286 0 8.57143 2.25714 0 10.7143 1.57143 0 12.8571 0.885714 0 17.8571 0.2 0 20.7143 0.2 0 23.5714 0.2 0 26.4286 0.2 0 29.2857 0.2 0 32.1429 0.2 0 32.1429 -0.2 0 29.2857 -0.2 0 26.4286 -0.2 0 23.5714 -0.2 0 20.7143 -0.2 0 17.8571 -0.2 0 12.8571 -0.885714 0 10.7143 -1.57143 0 8.57143 -2.25714 0 6.42857 -2.94286 0 4.28571 -3.62857 0 2.14286 -4.31429 0 0 -2.5 0 0 -6.16307e-12 0 0 2.5 0 3.95974 -5.7158e-13 0 13.9286 -3.66374e-15 0 6.61813 2.81487e-12 0 2.86365 2.0434 0 2.86365 -2.0434 0 9.43036 1.987e-12 0 11.3926 2.79508e-14 0 4.83116 1.72297 0 4.83116 -1.72297 0 1.90629 -3.21031e-12 0 33.5714 0 0 16.4286 -1.80625e-18 0 25 6.93889e-18 0 19.2857 -6.93889e-18 0 30.7143 0 0 22.1429 0 0 27.8571 0 0 
        </DataArray>
      </Points>
      <Cells>
        <DataArray type="Int32" Name="connectivity" format="ascii">
          8 9 35 26 27 35 8 35 40 27 41 35 30 42 37 32 36 42 33 40 35 33 35 41 29 30 37 6 36 32 30 31 42 31 32 42 0 6 32 30 29 1 26 35 38 9 38 35 6 7 36 28 29 37 7 40 36 33 41 37 33 36 40 28 37 41 9 10 38 25 26 38 33 42 36 33 37 42 11 34 24 24 25 39 10 11 39 25 38 39 10 39 38 11 24 39 27 28 41 7 8 40 2 34 11 3 24 34 2 3 34 2 44 12 3 23 44 4 17 43 5 43 18 12 46 13 13 48 14 14 45 15 15 49 16 16 47 17 18 47 19 19 49 20 20 45 21 21 48 22 22 46 23 2 3 44 4 43 5 12 44 23 12 23 46 13 46 22 13 22 48 14 21 45 14 48 21 15 45 20 15 20 49 16 19 47 16 49 19 17 18 43 17 47 18 
        </DataArray>
        <DataArray type="Int32" Name="offsets" format="ascii">
          3 6 9 12 15 18 21 24 27 30 33 36 39 42 45 48 51 54 57 60 63 66 69 72 75 78 81 84 87 90 93 96 99 102 105 108 111 114 117 120 123 126 129 132 135 138 141 144 147 150 153 156 159 162 165 168 171 174 177 180 183 186 189 192 195 
        </DataArray>
        <DataArray type="UInt8" Name="types" format="ascii">
          5 5 5 5 5 5 5 5 5 5 5 5 5 5 5 5 5 5 5 5 5 5 5 5 5 5 5 5 5 5 5 5 5 5 5 5 5 5 5 5 5 5 5 5 5 5 5 5 5 5 5 5 5 5 5 5 5 5 5 5 5 5 5 5 5 
        </DataArray>
      </Cells>
      <CellData>
        <DataArray type="Float32" Name="F0_Alpha_SG_co2liq_mod.xml" format="ascii">
1.72644e-10 1.72659e-10 1.72428e-10 1.72556e-10 1.65341e-10 1.65334e-10 1.70943e-10 1.70828e-10 1.64638e-10 1.64434e-10 1.67734e-10 1.67734e-10 1.63331e-10 1.63629e-10 1.72682e-10 1.72678e-10 1.64758e-10 1.63928e-10 1.66993e-10 1.6698e-10 1.67016e-10 1.67016e-10 1.72682e-10 1.72682e-10 1.66074e-10 1.66088e-10 1.72682e-10 1.72682e-10 1.72682e-10 1.72682e-10 1.72682e-10 1.72682e-10 1.71449e-10 1.71288e-10 1.72682e-10 1.72682e-10 1.72682e-10 1.72682e-10 1.72682e-10 1.73233e-10 1.73233e-10 1.72682e-10 1.72682e-10 1.72682e-10 1.72694e-10 1.72808e-10 1.72807e-10 1.72694e-10 1.72682e-10 1.72682e-10 1.72682e-10 1.72682e-10 1.7328e-10 1.72682e-10 1.72682e-10 1.72682e-10 1.72682e-10 1.72682e-10 1.72682e-10 1.72683e-10 1.72689e-10 1.72771e-10 1.727e-10 1.73145e-10 1.72847e-10 
        </DataArray>
        <DataArray type="Float32" Name="F0_Density_SG_co2liq_mod.xml" format="ascii">
5899.57 5898.61 5912.9 5905.03 6460.95 6461.26 5999.73 6006.2 6501.93 6514.89 6343.6 6343.57 6629.62 6609.91 5897.11 5897.37 6409.14 6460.67 6226.18 6246.88 6244.9 6226.61 5897.13 5897.13 6345.95 6344.98 5897.13 5897.13 5897.13 5897.13 5897.12 5897.13 5969.29 5977.97 5897.13 5897.13 5897.13 5897.13 5897.13 5859.93 5859.94 5897.13 5897.13 5897.1 5896.39 5889.03 5889.06 5896.39 5897.1 5897.13 5897.13 5897.13 5852.78 5897.13 5897.13 5897.13 5897.13 5897.11 5897.13 5897.07 5896.69 5891.44 5895.97 5866.31 5886.41 
        </DataArray>
        <DataArray type="Float32" Name="F0_Temperature_SG_co2liq_mod.xml" format="ascii">
41.7883 41.7853 41.8274 41.8048 42.4057 42.4058 42.0154 42.0263 42.4217 42.4264 42.3496 42.3496 42.4623 42.4568 41.7806 41.7814 42.383 42.4056 42.2731 42.2884 42.287 42.2734 41.7807 41.7807 42.3509 42.3503 41.7807 41.7807 41.7807 41.7807 41.7807 41.7807 41.9594 41.9763 41.7807 41.7807 41.7807 41.7807 41.7807 41.6412 41.6412 41.7807 41.7807 41.7806 41.7783 41.7543 41.7544 41.7783 41.7806 41.7807 41.7807 41.7807 41.6073 41.7807 41.7807 41.7807 41.7807 41.7806 41.7807 41.7805 41.7793 41.7624 41.777 41.6691 41.7454 
        </DataArray>
        <DataArray type="Float32" Name="F0_Mass fraction_SG_co2liq_mod.xml" format="ascii">
9.49354e-09 9.5326e-09 8.99152e-09 9.27912e-09 2.58765e-09 2.58719e-09 6.84519e-09 6.73398e-09 2.50107e-09 2.4717e-09 2.78712e-09 2.78722e-09 2.13538e-09 2.16951e-09 9.59539e-09 9.58432e-09 3.10908e-09 2.9384e-09 4.37003e-09 4.04065e-09 4.05123e-09 4.34837e-09 9.59452e-09 9.59458e-09 3.24741e-09 3.25176e-09 9.5944e-09 9.5944e-09 9.59442e-09 9.59439e-09 9.59463e-09 9.5944e-09 7.4897e-09 7.32121e-09 9.5944e-09 9.5944e-09 9.5944e-09 9.5944e-09 9.5944e-09 1.16205e-08 1.16202e-08 9.5944e-09 9.59443e-09 9.59577e-09 9.62561e-09 9.95203e-09 9.95064e-09 9.62573e-09 9.59579e-09 9.59443e-09 9.5944e-09 9.5944e-09 1.24025e-08 9.5944e-09 9.5944e-09 9.5944e-09 9.59441e-09 9.59507e-09 9.59447e-09 9.59699e-09 9.61276e-09 9.84191e-09 9.64344e-09 1.11873e-08 1.00775e-08 
        </DataArray>
        <DataArray type="Float32" Name="F1_Alpha_SG_co2gas_mod.xml" format="ascii">
1 1 1 1 1 1 1 1 1 1 1 1 1 1 1 1 1 1 1 1 1 1 1 1 1 1 1 1 1 1 1 1 1 1 1 1 1 1 1 1 1 1 1 1 1 1 1 1 1 1 1 1 1 1 1 1 1 1 1 1 1 1 1 1 1 
        </DataArray>
        <DataArray type="Float32" Name="F1_Density_SG_co2gas_mod.xml" format="ascii">
107.286 106.838 113.39 109.811 412.83 412.906 149.83 152.366 428.003 433.413 381.768 381.755 507.086 498.535 106.127 106.251 339.637 360.428 237.923 258.153 257.452 239.157 106.136 106.136 324.534 324.078 106.138 106.138 106.138 106.138 106.135 106.138 136.645 139.862 106.138 106.138 106.138 106.138 106.138 87.3573 87.3595 106.138 106.137 106.122 105.787 102.258 102.272 105.786 106.122 106.137 106.138 106.138 81.7712 106.138 106.138 106.138 106.138 106.13 106.137 106.109 105.931 103.422 105.588 90.7923 100.963 
        </DataArray>
        <DataArray type="Float32" Name="F1_Temperature_SG_co2gas_mod.xml" format="ascii">
466.697 466.572 468.548 467.482 379.331 379.391 477.904 478.535 382.583 383.003 355.985 355.984 366.436 365.922 466.382 466.415 434.305 434.344 482.324 459.125 458.975 480.165 466.385 466.385 420.057 420.112 466.385 466.385 466.385 466.385 466.385 466.385 478.201 480.102 466.385 466.385 466.385 466.385 466.385 461.303 461.304 466.385 466.385 466.381 466.293 465.358 465.36 466.293 466.381 466.385 466.385 466.385 469.254 466.385 466.385 466.385 466.385 466.383 466.385 466.378 466.331 465.665 466.242 462.193 465.104 
        </DataArray>
        <DataArray type="Float32" Name="F1_Mass fraction_SG_co2gas_mod.xml" format="ascii">
1 1 1 1 1 1 1 1 1 1 1 1 1 1 1 1 1 1 1 1 1 1 1 1 1 1 1 1 1 1 1 1 1 1 1 1 1 1 1 1 1 1 1 1 1 1 1 1 1 1 1 1 1 1 1 1 1 1 1 1 1 1 1 1 1 
        </DataArray>
        <DataArray type="Float32" Name="Density_Mixture" format="ascii">
107.286 106.838 113.39 109.811 412.83 412.906 149.83 152.366 428.003 433.413 381.768 381.755 507.086 498.535 106.127 106.251 339.637 360.428 237.923 258.153 257.452 239.157 106.136 106.136 324.534 324.078 106.138 106.138 106.138 106.138 106.135 106.138 136.645 139.862 106.138 106.138 106.138 106.138 106.138 87.3573 87.3595 106.138 106.137 106.122 105.787 102.258 102.272 105.786 106.122 106.137 106.138 106.138 81.7712 106.138 106.138 106.138 106.138 106.13 106.137 106.109 105.931 103.422 105.588 90.7923 100.963 
        </DataArray>
        <DataArray type="Float32" Name="Pressure_Mixture" format="ascii">
6.35412e+06 6.32199e+06 6.79643e+06 6.53699e+06 2.17582e+07 2.1766e+07 9.46797e+06 9.65713e+06 2.27917e+07 2.31174e+07 1.87657e+07 1.8765e+07 2.59828e+07 2.54927e+07 6.27106e+06 6.27998e+06 2.04434e+07 2.17511e+07 1.57077e+07 1.62526e+07 1.62005e+07 1.57191e+07 6.27176e+06 6.27171e+06 1.88263e+07 1.88012e+07 6.27186e+06 6.27186e+06 6.27184e+06 6.27186e+06 6.27167e+06 6.27186e+06 8.56269e+06 8.82358e+06 6.27186e+06 6.27186e+06 6.27186e+06 6.27186e+06 6.27186e+06 4.94111e+06 4.94128e+06 6.27186e+06 6.27183e+06 6.27075e+06 6.24682e+06 5.99499e+06 5.996e+06 6.24672e+06 6.27074e+06 6.27183e+06 6.27186e+06 6.27186e+06 4.66251e+06 6.27186e+06 6.27186e+06 6.27186e+06 6.27185e+06 6.27131e+06 6.2718e+06 6.26978e+06 6.25711e+06 6.07792e+06 6.23262e+06 5.18193e+06 5.90416e+06 
        </DataArray>
        <DataArray type="Float32" Name="Velocity_Mixture" NumberOfComponents="3" format="ascii">
3.05478 -0.0375942 0 1.32097 0.310303 0 15.4702 -0.934318 0 8.80153 -6.30932 0 317.393 7.85632 0 318.558 -9.37383 0 103.491 -6.94734 0 108.535 6.31092 0 308.187 43.6345 0 306.948 -42.5853 0 342.774 0.117812 0 342.776 -0.116622 0 296.846 -43.7699 0 298.175 46.3713 0 -0.0271369 -0.0672008 0 0.245156 -0.152851 0 269.369 -51.5627 0 269.637 74.3915 0 216.183 -32.7474 0 231.919 1.55209 0 232.076 0.91652 0 198.335 57.3575 0 -0.0161423 -0.0126572 0 -0.00260921 -0.000848865 0 273.394 -20.0367 0 274.101 22.4228 0 0 0 0 1.19433e-05 0 0 -0.000487951 -0.000150046 0 0.000433396 0.00111719 0 -0.0052187 0.0041716 0 0 1.22378e-06 0 54.1326 18.3092 0 82.0237 -3.30703 0 0 0 0 0 0 0 0 0 0 0 0 0 0 0 0 17.693 -0.974289 0 17.6944 0.978743 0 0 0 0 0.000138533 -0.000174876 0 0.00731614 -0.00557513 0 0.183362 -0.0865989 0 2.37446 -0.552528 0 2.43555 0.529537 0 0.19394 0.0832485 0 0.00794243 0.00542962 0 0.000159718 0.000171526 0 0 0 0 0 0 0 59.1111 0.00503414 0 0 0 0 0 0 0 2.8072e-05 0 0 8.44356e-05 0 0 0.00602835 0.00078217 0 0.00346103 -0.000109392 0 0.128643 -0.0036626 0 0.191543 0.0179339 0 3.25203 0.172467 0 2.49175 -0.0582329 0 28.6235 -0.00678057 0 22.4278 -0.295346 0 
        </DataArray>
        <DataArray type="Float32" Name="gradRho" format="ascii">
1.92702 0.972272 10.928 11.0441 25.5725 26.5559 48.5 49.1258 41.8639 52.1032 21.5738 21.6338 17.3934 16.652 0.172709 0.339437 51.5541 47.5071 67.2694 57.2571 58.2629 74.4605 0.0392134 0.0035597 51.705 51.4433 3.08468e-06 2.44324e-05 0.000928349 0.0010615 0.00114436 9.50719e-05 39.2515 37.6577 4.14297e-08 4.56629e-08 6.30537e-09 1.36532e-08 1.15339e-08 0.854158 0.85491 1.95745e-06 7.77013e-05 0.00215012 0.0284962 0.180422 0.181967 0.0281571 0.00207004 7.39203e-05 1.67607e-06 4.48092e-09 0.805531 4.53639e-07 7.15539e-07 4.84353e-05 6.92642e-05 0.00313955 0.00241388 0.0633246 0.0759347 0.869533 0.777362 3.88973 3.68483 
        </DataArray>
      </CellData>
    </Piece>
  </UnstructuredGrid>
</VTKFile>
