<?xml version="1.0"?>
<VTKFile type="UnstructuredGrid" version="0.1" byte_order="LittleEndian">
  <UnstructuredGrid>
    <Piece NumberOfPoints="50" NumberOfCells="65">
      <Points>
        <DataArray type="Float32" NumberOfComponents="3" format="ascii">
          0 5 0 0 -5 0 15 0.2 0 15 -0.2 0 35 0.2 0 35 -0.2 0 2.14286 4.31429 0 4.28571 3.62857 0 6.42857 2.94286 0 8.57143 2.25714 0 10.7143 1.57143 0 12.8571 0.885714 0 17.8571 0.2 0 20.7143 0.2 0 23.5714 0.2 0 26.4286 0.2 0 29.2857 0.2 0 32.1429 0.2 0 32.1429 -0.2 0 29.2857 -0.2 0 26.4286 -0.2 0 23.5714 -0.2 0 20.7143 -0.2 0 17.8571 -0.2 0 12.8571 -0.885714 0 10.7143 -1.57143 0 8.57143 -2.25714 0 6.42857 -2.94286 0 4.28571 -3.62857 0 2.14286 -4.31429 0 0 -2.5 0 0 -6.16307e-12 0 0 2.5 0 3.95974 -5.7158e-13 0 13.9286 -3.66374e-15 0 6.61813 2.81487e-12 0 2.86365 2.0434 0 2.86365 -2.0434 0 9.43036 1.987e-12 0 11.3926 2.79508e-14 0 4.83116 1.72297 0 4.83116 -1.72297 0 1.90629 -3.21031e-12 0 33.5714 0 0 16.4286 -1.80625e-18 0 25 6.93889e-18 0 19.2857 -6.93889e-18 0 30.7143 0 0 22.1429 0 0 27.8571 0 0 
        </DataArray>
      </Points>
      <Cells>
        <DataArray type="Int32" Name="connectivity" format="ascii">
          8 9 35 26 27 35 8 35 40 27 41 35 30 42 37 32 36 42 33 40 35 33 35 41 29 30 37 6 36 32 30 31 42 31 32 42 0 6 32 30 29 1 26 35 38 9 38 35 6 7 36 28 29 37 7 40 36 33 41 37 33 36 40 28 37 41 9 10 38 25 26 38 33 42 36 33 37 42 11 34 24 24 25 39 10 11 39 25 38 39 10 39 38 11 24 39 27 28 41 7 8 40 2 34 11 3 24 34 2 3 34 2 44 12 3 23 44 4 17 43 5 43 18 12 46 13 13 48 14 14 45 15 15 49 16 16 47 17 18 47 19 19 49 20 20 45 21 21 48 22 22 46 23 2 3 44 4 43 5 12 44 23 12 23 46 13 46 22 13 22 48 14 21 45 14 48 21 15 45 20 15 20 49 16 19 47 16 49 19 17 18 43 17 47 18 
        </DataArray>
        <DataArray type="Int32" Name="offsets" format="ascii">
          3 6 9 12 15 18 21 24 27 30 33 36 39 42 45 48 51 54 57 60 63 66 69 72 75 78 81 84 87 90 93 96 99 102 105 108 111 114 117 120 123 126 129 132 135 138 141 144 147 150 153 156 159 162 165 168 171 174 177 180 183 186 189 192 195 
        </DataArray>
        <DataArray type="UInt8" Name="types" format="ascii">
          5 5 5 5 5 5 5 5 5 5 5 5 5 5 5 5 5 5 5 5 5 5 5 5 5 5 5 5 5 5 5 5 5 5 5 5 5 5 5 5 5 5 5 5 5 5 5 5 5 5 5 5 5 5 5 5 5 5 5 5 5 5 5 5 5 
        </DataArray>
      </Cells>
      <CellData>
        <DataArray type="Float32" Name="F0_Alpha_SG_co2liq_mod.xml" format="ascii">
1.68343e-10 1.67721e-10 1.6444e-10 1.6486e-10 1.64993e-10 1.64903e-10 1.63851e-10 1.63513e-10 1.6324e-10 1.63206e-10 1.67783e-10 1.67783e-10 1.60577e-10 1.60877e-10 1.71925e-10 1.71472e-10 1.62241e-10 1.6251e-10 1.61738e-10 1.62414e-10 1.6303e-10 1.61233e-10 1.72592e-10 1.7271e-10 1.63793e-10 1.638e-10 1.72682e-10 1.72682e-10 1.72688e-10 1.72689e-10 1.7269e-10 1.72683e-10 1.61812e-10 1.61812e-10 1.72682e-10 1.72682e-10 1.72682e-10 1.72682e-10 1.72682e-10 1.73384e-10 1.73384e-10 1.72682e-10 1.72683e-10 1.72692e-10 1.72761e-10 1.73009e-10 1.73009e-10 1.72761e-10 1.72693e-10 1.72683e-10 1.72682e-10 1.72682e-10 1.73412e-10 1.72682e-10 1.72682e-10 1.72682e-10 1.72682e-10 1.72689e-10 1.72683e-10 1.72697e-10 1.72739e-10 1.72947e-10 1.72784e-10 1.7332e-10 1.73066e-10 
        </DataArray>
        <DataArray type="Float32" Name="F0_Density_SG_co2liq_mod.xml" format="ascii">
6143.19 6176.57 6362.72 6341.17 6523.45 6528.68 6462.3 6483.63 6643.01 6645.04 6347.81 6347.79 6832.01 6811.36 5942.73 5969.04 6665.69 6651.02 6646.23 6616.81 6582.45 6674.52 5902.81 5895.34 6561.94 6561.12 5897.13 5897.11 5896.73 5896.69 5896.6 5897.06 6560.51 6557.79 5897.13 5897.13 5897.13 5897.13 5897.13 5848.41 5848.41 5897.13 5897.08 5896.46 5892.06 5875.66 5875.66 5892.07 5896.46 5897.08 5897.13 5897.13 5842.53 5897.13 5897.13 5897.13 5897.1 5896.69 5897.05 5896.18 5893.45 5879.86 5890.56 5853.48 5871.69 
        </DataArray>
        <DataArray type="Float32" Name="F0_Temperature_SG_co2liq_mod.xml" format="ascii">
42.2009 42.2322 42.3599 42.3482 42.4294 42.4313 42.4062 42.4147 42.4658 42.4664 42.3519 42.3519 42.505 42.5016 41.9028 41.9589 42.4716 42.4679 42.4667 42.4587 42.4487 42.4737 41.7982 41.775 42.4423 42.4421 41.7807 41.7806 41.7794 41.7793 41.779 41.7804 42.4419 42.441 41.7807 41.7807 41.7807 41.7807 41.7807 41.5849 41.5849 41.7807 41.7805 41.7786 41.7644 41.7065 41.7065 41.7644 41.7786 41.7805 41.7807 41.7807 41.5524 41.7807 41.7807 41.7807 41.7806 41.7793 41.7804 41.7777 41.7689 41.7221 41.7595 41.6108 41.691 
        </DataArray>
        <DataArray type="Float32" Name="F0_Mass fraction_SG_co2liq_mod.xml" format="ascii">
5.0964e-09 4.8345e-09 3.71736e-09 3.79599e-09 2.32678e-09 2.31772e-09 2.94777e-09 2.88161e-09 2.09721e-09 2.09433e-09 2.74689e-09 2.74696e-09 1.81495e-09 1.84036e-09 8.09248e-09 7.46016e-09 2.1542e-09 2.17235e-09 2.31972e-09 2.3378e-09 2.39223e-09 2.2784e-09 9.36315e-09 9.67059e-09 2.35356e-09 2.35617e-09 9.59425e-09 9.59506e-09 9.61118e-09 9.6129e-09 9.61693e-09 9.59744e-09 2.78999e-09 2.80901e-09 9.59434e-09 9.59439e-09 9.5944e-09 9.5944e-09 9.5944e-09 1.2539e-08 1.25389e-08 9.59451e-09 9.59665e-09 9.62271e-09 9.81432e-09 1.06304e-08 1.06305e-08 9.8138e-09 9.62276e-09 9.59666e-09 9.59452e-09 9.5944e-09 1.33472e-08 9.59441e-09 9.59446e-09 9.5946e-09 9.59573e-09 9.61298e-09 9.59797e-09 9.63462e-09 9.75255e-09 1.04039e-08 9.88205e-09 1.21054e-08 1.08629e-08 
        </DataArray>
        <DataArray type="Float32" Name="F1_Alpha_SG_co2gas_mod.xml" format="ascii">
1 1 1 1 1 1 1 1 1 1 1 1 1 1 1 1 1 1 1 1 1 1 1 1 1 1 1 1 1 1 1 1 1 1 1 1 1 1 1 1 1 1 1 1 1 1 1 1 1 1 1 1 1 1 1 1 1 1 1 1 1 1 1 1 1 
        </DataArray>
        <DataArray type="Float32" Name="F1_Density_SG_co2gas_mod.xml" format="ascii">
202.92 214.28 281.459 275.396 462.581 464.508 359.206 367.904 517.072 517.834 387.731 387.721 604.46 595.422 126.254 137.199 502.019 497.552 463.397 459.688 448.591 472.33 108.807 105.287 456.67 456.127 106.139 106.13 105.949 105.93 105.885 106.103 380.492 377.758 106.138 106.138 106.138 106.138 106.138 80.8696 80.87 106.136 106.112 105.82 103.718 95.6257 95.6248 103.723 105.819 106.112 106.136 106.138 75.9086 106.138 106.137 106.135 106.123 105.929 106.098 105.687 104.386 97.7428 102.994 83.8074 93.5472 
        </DataArray>
        <DataArray type="Float32" Name="F1_Temperature_SG_co2gas_mod.xml" format="ascii">
489.949 492.985 494.927 491.912 362.071 362.519 436.611 436.413 363.802 363.941 352.443 352.443 364.46 364.119 472.946 475.89 382.454 380.835 407.133 399.429 396.116 409.694 467.092 466.164 381.353 381.495 466.386 466.383 466.336 466.331 466.32 466.376 457.053 459.116 466.386 466.385 466.385 466.385 466.385 459.458 459.458 466.385 466.379 466.302 465.745 463.564 463.559 465.746 466.301 466.379 466.385 466.385 467.284 466.385 466.385 466.385 466.381 466.33 466.375 466.267 465.922 464.123 465.574 460.139 463.227 
        </DataArray>
        <DataArray type="Float32" Name="F1_Mass fraction_SG_co2gas_mod.xml" format="ascii">
1 1 1 1 1 1 1 1 1 1 1 1 1 1 1 1 1 1 1 1 1 1 1 1 1 1 1 1 1 1 1 1 1 1 1 1 1 1 1 1 1 1 1 1 1 1 1 1 1 1 1 1 1 1 1 1 1 1 1 1 1 1 1 1 1 
        </DataArray>
        <DataArray type="Float32" Name="Density_Mixture" format="ascii">
202.92 214.28 281.459 275.396 462.581 464.508 359.206 367.904 517.072 517.834 387.731 387.721 604.46 595.422 126.254 137.199 502.019 497.552 463.397 459.688 448.591 472.33 108.807 105.287 456.67 456.127 106.139 106.13 105.949 105.93 105.885 106.103 380.492 377.758 106.138 106.138 106.138 106.138 106.138 80.8696 80.87 106.136 106.112 105.82 103.718 95.6257 95.6248 103.723 105.819 106.112 106.136 106.138 75.9086 106.138 106.137 106.135 106.123 105.929 106.098 105.687 104.386 97.7428 102.994 83.8074 93.5472 
        </DataArray>
        <DataArray type="Float32" Name="Pressure_Mixture" format="ascii">
1.34902e+07 1.43891e+07 1.9257e+07 1.87031e+07 2.33326e+07 2.34636e+07 2.17921e+07 2.23307e+07 2.6315e+07 2.63655e+07 1.88741e+07 1.88735e+07 3.09696e+07 3.04639e+07 7.74824e+06 8.55516e+06 2.6877e+07 2.65136e+07 2.63948e+07 2.56644e+07 2.48086e+07 2.70957e+07 6.46301e+06 6.21109e+06 2.42965e+07 2.42759e+07 6.27198e+06 6.27133e+06 6.25837e+06 6.257e+06 6.25379e+06 6.26941e+06 2.42607e+07 2.41927e+07 6.2719e+06 6.27187e+06 6.27186e+06 6.27185e+06 6.27185e+06 4.48678e+06 4.48681e+06 6.27177e+06 6.27005e+06 6.24914e+06 6.09904e+06 5.52392e+06 5.52379e+06 6.09944e+06 6.2491e+06 6.27004e+06 6.27176e+06 6.27186e+06 4.24309e+06 6.27185e+06 6.27181e+06 6.27169e+06 6.27079e+06 6.25693e+06 6.26899e+06 6.23964e+06 6.14673e+06 5.67374e+06 6.04779e+06 4.69021e+06 5.38003e+06 
        </DataArray>
        <DataArray type="Float32" Name="Velocity_Mixture" NumberOfComponents="3" format="ascii">
190.261 -27.0093 0 175.71 51.4919 0 248.049 -39.5641 0 251.735 43.0626 0 320.969 30.1976 0 320.68 -31.8575 0 291.941 -16.5123 0 293.463 27.2612 0 303.01 51.3027 0 303.178 -51.9657 0 343.794 0.0567339 0 343.798 -0.0537956 0 271.076 -42.8499 0 272.451 46.1588 0 38.8579 9.02925 0 73.6649 -20.8893 0 292.893 -71.7645 0 297.121 76.7788 0 295.385 -72.7155 0 290.441 46.1178 0 298.773 -40.0574 0 289.798 86.2892 0 4.64328 -1.00328 0 -1.76355 0.55573 0 305.968 -17.5294 0 305.284 16.7279 0 0.00431948 -0.000877126 0 -0.00380549 0.00761774 0 -0.433249 -0.0261817 0 -0.392034 0.136181 0 -0.505743 0.627211 0 -0.065344 0.0815023 0 285.52 87.4064 0 287.188 -73.0591 0 0.00104258 0.000284986 0 0.000263015 -6.43537e-05 0 4.74255e-06 -0.000162584 0 0 -1.58933e-05 0 0 1.71464e-05 0 36.6509 -0.57544 0 36.6553 0.577197 0 0.00060981 -0.000410224 0 0.0133807 -0.00635618 0 0.183897 -0.0585067 0 1.6242 -0.290143 0 9.25985 -0.676633 0 9.25023 0.664577 0 1.64305 0.28029 0 0.191317 0.0561512 0 0.0141465 0.0061361 0 0.000663123 0.00040146 0 0 0 0 73.119 0.0022736 0 0.000343833 0 0 0.000560928 5.59861e-05 0 0.0101038 -0.000261732 0 0.0145433 0.00122311 0 0.236129 0.0140886 0 0.179598 -0.00420402 0 1.99409 -0.0392502 0 2.43427 0.0632746 0 15.521 0.0421083 0 13.022 -0.0865651 0 58.4513 -0.00190963 0 45.6201 -0.0463329 0 
        </DataArray>
        <DataArray type="Float32" Name="gradRho" format="ascii">
33.6382 32.6743 51.2895 48.4607 33.3495 33.3504 51.7824 55.1575 40.1823 41.365 51.9849 53.3282 20.4515 18.4975 29.2037 28.3452 13.3705 11.597 47.1047 32.4755 35.0177 45.7455 10.2715 6.95844 5.28991 1.16648 0.015168 0.0723015 0.0572041 0.286881 0.978803 0.0794264 48.4333 44.8533 0.000503847 0.000716328 0.000306883 8.35489e-06 6.81918e-06 0.771702 0.771842 0.000153738 0.00215734 0.0185325 0.10131 0.302615 0.302629 0.101755 0.0184353 0.00211802 0.000148667 1.09695e-05 0.715275 0.000212496 0.000267535 0.00451637 0.00542506 0.0695283 0.0604425 0.467978 0.5192 2.04159 1.90784 3.69128 3.60867 
        </DataArray>
      </CellData>
    </Piece>
  </UnstructuredGrid>
</VTKFile>
