<?xml version="1.0"?>
<VTKFile type="UnstructuredGrid" version="0.1" byte_order="LittleEndian">
  <UnstructuredGrid>
    <Piece NumberOfPoints="50" NumberOfCells="65">
      <Points>
        <DataArray type="Float32" NumberOfComponents="3" format="ascii">
          0 5 0 0 -5 0 15 0.2 0 15 -0.2 0 35 0.2 0 35 -0.2 0 2.14286 4.31429 0 4.28571 3.62857 0 6.42857 2.94286 0 8.57143 2.25714 0 10.7143 1.57143 0 12.8571 0.885714 0 17.8571 0.2 0 20.7143 0.2 0 23.5714 0.2 0 26.4286 0.2 0 29.2857 0.2 0 32.1429 0.2 0 32.1429 -0.2 0 29.2857 -0.2 0 26.4286 -0.2 0 23.5714 -0.2 0 20.7143 -0.2 0 17.8571 -0.2 0 12.8571 -0.885714 0 10.7143 -1.57143 0 8.57143 -2.25714 0 6.42857 -2.94286 0 4.28571 -3.62857 0 2.14286 -4.31429 0 0 -2.5 0 0 -6.16307e-12 0 0 2.5 0 3.95974 -5.7158e-13 0 13.9286 -3.66374e-15 0 6.61813 2.81487e-12 0 2.86365 2.0434 0 2.86365 -2.0434 0 9.43036 1.987e-12 0 11.3926 2.79508e-14 0 4.83116 1.72297 0 4.83116 -1.72297 0 1.90629 -3.21031e-12 0 33.5714 0 0 16.4286 -1.80625e-18 0 25 6.93889e-18 0 19.2857 -6.93889e-18 0 30.7143 0 0 22.1429 0 0 27.8571 0 0 
        </DataArray>
      </Points>
      <Cells>
        <DataArray type="Int32" Name="connectivity" format="ascii">
          8 9 35 26 27 35 8 35 40 27 41 35 30 42 37 32 36 42 33 40 35 33 35 41 29 30 37 6 36 32 30 31 42 31 32 42 0 6 32 30 29 1 26 35 38 9 38 35 6 7 36 28 29 37 7 40 36 33 41 37 33 36 40 28 37 41 9 10 38 25 26 38 33 42 36 33 37 42 11 34 24 24 25 39 10 11 39 25 38 39 10 39 38 11 24 39 27 28 41 7 8 40 2 34 11 3 24 34 2 3 34 2 44 12 3 23 44 4 17 43 5 43 18 12 46 13 13 48 14 14 45 15 15 49 16 16 47 17 18 47 19 19 49 20 20 45 21 21 48 22 22 46 23 2 3 44 4 43 5 12 44 23 12 23 46 13 46 22 13 22 48 14 21 45 14 48 21 15 45 20 15 20 49 16 19 47 16 49 19 17 18 43 17 47 18 
        </DataArray>
        <DataArray type="Int32" Name="offsets" format="ascii">
          3 6 9 12 15 18 21 24 27 30 33 36 39 42 45 48 51 54 57 60 63 66 69 72 75 78 81 84 87 90 93 96 99 102 105 108 111 114 117 120 123 126 129 132 135 138 141 144 147 150 153 156 159 162 165 168 171 174 177 180 183 186 189 192 195 
        </DataArray>
        <DataArray type="UInt8" Name="types" format="ascii">
          5 5 5 5 5 5 5 5 5 5 5 5 5 5 5 5 5 5 5 5 5 5 5 5 5 5 5 5 5 5 5 5 5 5 5 5 5 5 5 5 5 5 5 5 5 5 5 5 5 5 5 5 5 5 5 5 5 5 5 5 5 5 5 5 5 
        </DataArray>
      </Cells>
      <CellData>
        <DataArray type="Float32" Name="F0_Alpha_SG_co2liq_mod.xml" format="ascii">
1.72682e-10 1.72682e-10 1.72682e-10 1.72682e-10 1.7254e-10 1.7254e-10 1.72682e-10 1.72682e-10 1.7258e-10 1.72582e-10 1.71328e-10 1.71328e-10 1.71422e-10 1.7142e-10 1.72682e-10 1.72682e-10 1.72683e-10 1.72683e-10 1.72682e-10 1.72682e-10 1.72682e-10 1.72682e-10 1.72682e-10 1.72682e-10 1.72684e-10 1.72684e-10 1.72682e-10 1.72682e-10 1.72682e-10 1.72682e-10 1.72682e-10 1.72682e-10 1.72682e-10 1.72682e-10 1.72682e-10 1.72682e-10 1.72682e-10 1.72682e-10 1.72682e-10 1.72705e-10 1.72705e-10 1.72682e-10 1.72682e-10 1.72682e-10 1.72682e-10 1.72682e-10 1.72682e-10 1.72682e-10 1.72682e-10 1.72682e-10 1.72682e-10 1.72682e-10 1.72807e-10 1.72682e-10 1.72682e-10 1.72682e-10 1.72682e-10 1.72682e-10 1.72682e-10 1.72682e-10 1.72682e-10 1.72682e-10 1.72682e-10 1.72683e-10 1.72682e-10 
        </DataArray>
        <DataArray type="Float32" Name="F0_Density_SG_co2liq_mod.xml" format="ascii">
5897.13 5897.13 5897.13 5897.13 5906.47 5906.47 5897.13 5897.13 5903.81 5903.73 6004.39 6004.39 5996.21 5996.25 5897.13 5897.13 5897.07 5897.05 5897.12 5897.13 5897.13 5897.13 5897.13 5897.13 5897 5897 5897.13 5897.13 5897.13 5897.13 5897.13 5897.13 5897.13 5897.13 5897.13 5897.13 5897.13 5897.13 5897.13 5895.64 5895.64 5897.13 5897.13 5897.13 5897.13 5897.13 5897.13 5897.13 5897.13 5897.13 5897.13 5897.13 5888.6 5897.13 5897.13 5897.13 5897.13 5897.13 5897.13 5897.13 5897.13 5897.13 5897.13 5897.04 5897.13 
        </DataArray>
        <DataArray type="Float32" Name="F0_Temperature_SG_co2liq_mod.xml" format="ascii">
41.7807 41.7807 41.7807 41.7807 41.809 41.809 41.7807 41.7807 41.8011 41.8009 42.0233 42.0233 42.0094 42.0094 41.7807 41.7807 41.7805 41.7804 41.7807 41.7807 41.7807 41.7807 41.7807 41.7807 41.7803 41.7803 41.7807 41.7807 41.7807 41.7807 41.7807 41.7807 41.7807 41.7807 41.7807 41.7807 41.7807 41.7807 41.7807 41.776 41.776 41.7807 41.7807 41.7807 41.7807 41.7807 41.7807 41.7807 41.7807 41.7807 41.7807 41.7807 41.7529 41.7807 41.7807 41.7807 41.7807 41.7807 41.7807 41.7807 41.7807 41.7807 41.7807 41.7804 41.7807 
        </DataArray>
        <DataArray type="Float32" Name="F0_Mass fraction_SG_co2liq_mod.xml" format="ascii">
9.5944e-09 9.5944e-09 9.5944e-09 9.5944e-09 9.20513e-09 9.20513e-09 9.5944e-09 9.5944e-09 9.31269e-09 9.31563e-09 6.13717e-09 6.13718e-09 6.31983e-09 6.32002e-09 9.5944e-09 9.5944e-09 9.59713e-09 9.59769e-09 9.59469e-09 9.59443e-09 9.59443e-09 9.59449e-09 9.5944e-09 9.5944e-09 9.59971e-09 9.59971e-09 9.5944e-09 9.5944e-09 9.5944e-09 9.5944e-09 9.5944e-09 9.5944e-09 9.5944e-09 9.5944e-09 9.5944e-09 9.5944e-09 9.5944e-09 9.5944e-09 9.5944e-09 9.65773e-09 9.65773e-09 9.5944e-09 9.5944e-09 9.5944e-09 9.5944e-09 9.59441e-09 9.59441e-09 9.5944e-09 9.5944e-09 9.5944e-09 9.5944e-09 9.5944e-09 9.99761e-09 9.5944e-09 9.5944e-09 9.5944e-09 9.5944e-09 9.5944e-09 9.5944e-09 9.5944e-09 9.5944e-09 9.5944e-09 9.5944e-09 9.59826e-09 9.59448e-09 
        </DataArray>
        <DataArray type="Float32" Name="F1_Alpha_SG_co2gas_mod.xml" format="ascii">
1 1 1 1 1 1 1 1 1 1 1 1 1 1 1 1 1 1 1 1 1 1 1 1 1 1 1 1 1 1 1 1 1 1 1 1 1 1 1 1 1 1 1 1 1 1 1 1 1 1 1 1 1 1 1 1 1 1 1 1 1 1 1 1 1 
        </DataArray>
        <DataArray type="Float32" Name="F1_Density_SG_co2gas_mod.xml" format="ascii">
106.138 106.138 106.138 106.138 110.71 110.71 106.138 106.138 109.408 109.373 167.621 167.621 162.644 162.639 106.138 106.138 106.107 106.101 106.134 106.137 106.137 106.137 106.138 106.138 106.078 106.078 106.138 106.138 106.138 106.138 106.138 106.138 106.138 106.138 106.138 106.138 106.138 106.138 106.138 105.429 105.429 106.138 106.138 106.138 106.138 106.138 106.138 106.138 106.138 106.138 106.138 106.138 101.783 106.138 106.138 106.138 106.138 106.138 106.138 106.138 106.138 106.138 106.138 106.094 106.137 
        </DataArray>
        <DataArray type="Float32" Name="F1_Temperature_SG_co2gas_mod.xml" format="ascii">
466.385 466.385 466.385 466.385 466.661 466.661 466.385 466.385 466.626 466.622 432.813 432.813 435.862 435.921 466.385 466.385 466.377 466.376 466.384 466.385 466.385 466.385 466.385 466.385 466.37 466.37 466.385 466.385 466.385 466.385 466.385 466.385 466.385 466.385 466.385 466.385 466.385 466.385 466.385 466.2 466.2 466.385 466.385 466.385 466.385 466.385 466.385 466.385 466.385 466.385 466.385 466.385 466.516 466.385 466.385 466.385 466.385 466.385 466.385 466.385 466.385 466.385 466.385 466.374 466.385 
        </DataArray>
        <DataArray type="Float32" Name="F1_Mass fraction_SG_co2gas_mod.xml" format="ascii">
1 1 1 1 1 1 1 1 1 1 1 1 1 1 1 1 1 1 1 1 1 1 1 1 1 1 1 1 1 1 1 1 1 1 1 1 1 1 1 1 1 1 1 1 1 1 1 1 1 1 1 1 1 1 1 1 1 1 1 1 1 1 1 1 1 
        </DataArray>
        <DataArray type="Float32" Name="Density_Mixture" format="ascii">
106.138 106.138 106.138 106.138 110.71 110.71 106.138 106.138 109.408 109.373 167.621 167.621 162.644 162.639 106.138 106.138 106.107 106.101 106.134 106.137 106.137 106.137 106.138 106.138 106.078 106.078 106.138 106.138 106.138 106.138 106.138 106.138 106.138 106.138 106.138 106.138 106.138 106.138 106.138 105.429 105.429 106.138 106.138 106.138 106.138 106.138 106.138 106.138 106.138 106.138 106.138 106.138 101.783 106.138 106.138 106.138 106.138 106.138 106.138 106.138 106.138 106.138 106.138 106.094 106.137 
        </DataArray>
        <DataArray type="Float32" Name="Pressure_Mixture" format="ascii">
6.27186e+06 6.27186e+06 6.27186e+06 6.27186e+06 6.58464e+06 6.58463e+06 6.27186e+06 6.27186e+06 6.4962e+06 6.49377e+06 9.6045e+06 9.6045e+06 9.36471e+06 9.36579e+06 6.27186e+06 6.27186e+06 6.26966e+06 6.26921e+06 6.27162e+06 6.27183e+06 6.27183e+06 6.27178e+06 6.27186e+06 6.27186e+06 6.26759e+06 6.26759e+06 6.27186e+06 6.27186e+06 6.27186e+06 6.27186e+06 6.27186e+06 6.27186e+06 6.27186e+06 6.27186e+06 6.27186e+06 6.27186e+06 6.27186e+06 6.27186e+06 6.27186e+06 6.22127e+06 6.22127e+06 6.27186e+06 6.27186e+06 6.27186e+06 6.27186e+06 6.27185e+06 6.27185e+06 6.27186e+06 6.27186e+06 6.27186e+06 6.27186e+06 6.27186e+06 5.98012e+06 6.27186e+06 6.27186e+06 6.27186e+06 6.27186e+06 6.27186e+06 6.27186e+06 6.27186e+06 6.27186e+06 6.27186e+06 6.27186e+06 6.26875e+06 6.27179e+06 
        </DataArray>
        <DataArray type="Float32" Name="Velocity_Mixture" NumberOfComponents="3" format="ascii">
0 0 0 0 0 0 0 0 0 0 0 0 12.3904 -5.02157 0 12.3909 5.02423 0 0 0 0 0 0 0 8.00628 4.87644 0 7.95791 -4.76561 0 163.659 0.963747 0 163.659 -0.963725 0 152.199 -2.38717 0 150.866 6.54687 0 0 0 0 0 0 0 -0.0963401 -0.0415354 0 -0.0878968 0.0258965 0 -0.00629673 0.00545754 0 -0.000769964 0.000374957 0 -0.000754269 -0.000271905 0 -0.00194182 -0.00168776 0 0 0 0 0 0 0 -0.135877 0.0616633 0 -0.135866 -0.0616563 0 0 0 0 0 0 0 0 0 0 0 0 0 0 0 0 0 0 0 1.57873e-06 0 0 1.40614e-05 2.16156e-06 0 0 0 0 0 0 0 0 0 0 0 0 0 0 0 0 0.260736 -0.86477 0 0.260736 0.86477 0 0 0 0 0 0 0 0 0 0 0 0 0 1.7053e-05 -0.000102537 0 2.62314e-05 0.000144648 0 0 0 0 0 0 0 0 0 0 0 0 0 0 0 0 5.91478 0 0 0 0 0 0 0 0 0 0 0 0 0 0 0 0 0 0 0 0 0 0 0 0 0 0 0 0 0 0 0 0 0.0326999 0 0 0.00253359 -6.18207e-05 0 
        </DataArray>
        <DataArray type="Float32" Name="gradRho" format="ascii">
3.99006e-08 5.20405e-09 1.93145e-06 6.04313e-07 18.4887 18.4932 0.000140162 0.000135607 14.7531 14.7449 39.5251 39.5251 12.5767 12.5673 0 1.05179e-11 1.07501 1.08712 0.0103482 0.0201992 0.0199612 0.0117425 0 0 1.57349 1.5735 0 0 0 0 0 0 0.000356083 0.00115245 0 0 0 0 0 0.828078 0.828078 0 0 0 3.97087e-09 0.00021096 0.000199288 3.8028e-09 0 0 0 0 0.525686 0 0 0 0 0 0 0 1.81849e-10 1.40734e-05 4.9093e-07 0.0788169 0.0149911 
        </DataArray>
      </CellData>
    </Piece>
  </UnstructuredGrid>
</VTKFile>
