<?xml version="1.0"?>
<VTKFile type="UnstructuredGrid" version="0.1" byte_order="LittleEndian">
  <UnstructuredGrid>
    <Piece NumberOfPoints="50" NumberOfCells="65">
      <Points>
        <DataArray type="Float32" NumberOfComponents="3" format="ascii">
          0 5 0 0 -5 0 15 0.2 0 15 -0.2 0 35 0.2 0 35 -0.2 0 2.14286 4.31429 0 4.28571 3.62857 0 6.42857 2.94286 0 8.57143 2.25714 0 10.7143 1.57143 0 12.8571 0.885714 0 17.8571 0.2 0 20.7143 0.2 0 23.5714 0.2 0 26.4286 0.2 0 29.2857 0.2 0 32.1429 0.2 0 32.1429 -0.2 0 29.2857 -0.2 0 26.4286 -0.2 0 23.5714 -0.2 0 20.7143 -0.2 0 17.8571 -0.2 0 12.8571 -0.885714 0 10.7143 -1.57143 0 8.57143 -2.25714 0 6.42857 -2.94286 0 4.28571 -3.62857 0 2.14286 -4.31429 0 0 -2.5 0 0 -6.16307e-12 0 0 2.5 0 3.95974 -5.7158e-13 0 13.9286 -3.66374e-15 0 6.61813 2.81487e-12 0 2.86365 2.0434 0 2.86365 -2.0434 0 9.43036 1.987e-12 0 11.3926 2.79508e-14 0 4.83116 1.72297 0 4.83116 -1.72297 0 1.90629 -3.21031e-12 0 33.5714 0 0 16.4286 -1.80625e-18 0 25 6.93889e-18 0 19.2857 -6.93889e-18 0 30.7143 0 0 22.1429 0 0 27.8571 0 0 
        </DataArray>
      </Points>
      <Cells>
        <DataArray type="Int32" Name="connectivity" format="ascii">
          8 9 35 26 27 35 8 35 40 27 41 35 30 42 37 32 36 42 33 40 35 33 35 41 29 30 37 6 36 32 30 31 42 31 32 42 0 6 32 30 29 1 26 35 38 9 38 35 6 7 36 28 29 37 7 40 36 33 41 37 33 36 40 28 37 41 9 10 38 25 26 38 33 42 36 33 37 42 11 34 24 24 25 39 10 11 39 25 38 39 10 39 38 11 24 39 27 28 41 7 8 40 2 34 11 3 24 34 2 3 34 2 44 12 3 23 44 4 17 43 5 43 18 12 46 13 13 48 14 14 45 15 15 49 16 16 47 17 18 47 19 19 49 20 20 45 21 21 48 22 22 46 23 2 3 44 4 43 5 12 44 23 12 23 46 13 46 22 13 22 48 14 21 45 14 48 21 15 45 20 15 20 49 16 19 47 16 49 19 17 18 43 17 47 18 
        </DataArray>
        <DataArray type="Int32" Name="offsets" format="ascii">
          3 6 9 12 15 18 21 24 27 30 33 36 39 42 45 48 51 54 57 60 63 66 69 72 75 78 81 84 87 90 93 96 99 102 105 108 111 114 117 120 123 126 129 132 135 138 141 144 147 150 153 156 159 162 165 168 171 174 177 180 183 186 189 192 195 
        </DataArray>
        <DataArray type="UInt8" Name="types" format="ascii">
          5 5 5 5 5 5 5 5 5 5 5 5 5 5 5 5 5 5 5 5 5 5 5 5 5 5 5 5 5 5 5 5 5 5 5 5 5 5 5 5 5 5 5 5 5 5 5 5 5 5 5 5 5 5 5 5 5 5 5 5 5 5 5 5 5 
        </DataArray>
      </Cells>
      <CellData>
        <DataArray type="Float32" Name="F0_Alpha_SG_co2liq_mod.xml" format="ascii">
1.72682e-10 1.72682e-10 1.72682e-10 1.72682e-10 1.70049e-10 1.70056e-10 1.72682e-10 1.72682e-10 1.70652e-10 1.70696e-10 1.68646e-10 1.68645e-10 1.68008e-10 1.68054e-10 1.72682e-10 1.72682e-10 1.72551e-10 1.72502e-10 1.7268e-10 1.72673e-10 1.72673e-10 1.72698e-10 1.72682e-10 1.72682e-10 1.72545e-10 1.72542e-10 1.72682e-10 1.72682e-10 1.72682e-10 1.72682e-10 1.72682e-10 1.72682e-10 1.72683e-10 1.72683e-10 1.72682e-10 1.72682e-10 1.72682e-10 1.72682e-10 1.72682e-10 1.72872e-10 1.72872e-10 1.72682e-10 1.72682e-10 1.72682e-10 1.72682e-10 1.72685e-10 1.72685e-10 1.72682e-10 1.72682e-10 1.72682e-10 1.72682e-10 1.72682e-10 1.72984e-10 1.72682e-10 1.72682e-10 1.72682e-10 1.72682e-10 1.72682e-10 1.72682e-10 1.72682e-10 1.72682e-10 1.72683e-10 1.72682e-10 1.72782e-10 1.72691e-10 
        </DataArray>
        <DataArray type="Float32" Name="F0_Density_SG_co2liq_mod.xml" format="ascii">
5897.13 5897.13 5897.13 5897.13 6072.59 6072.23 5897.13 5897.13 6032.87 6029.81 6227.98 6228.07 6260.36 6257.17 5897.13 5897.13 5905.18 5908.24 5897.24 5897.7 5897.69 5896.09 5897.13 5897.13 5905.3 5905.51 5897.13 5897.13 5897.13 5897.13 5897.13 5897.13 5897.05 5897.08 5897.13 5897.13 5897.13 5897.13 5897.13 5884.85 5884.85 5897.13 5897.13 5897.13 5897.13 5896.92 5896.91 5897.13 5897.13 5897.13 5897.13 5897.13 5875.41 5897.13 5897.13 5897.13 5897.13 5897.13 5897.13 5897.13 5897.13 5897.07 5897.13 5890.7 5896.54 
        </DataArray>
        <DataArray type="Float32" Name="F0_Temperature_SG_co2liq_mod.xml" format="ascii">
41.7807 41.7807 41.7807 41.7807 42.1222 42.1217 41.7807 41.7807 42.068 42.0634 42.2744 42.2745 42.298 42.2957 41.7807 41.7807 41.8052 41.8141 41.781 41.7825 41.7824 41.7774 41.7807 41.7807 41.8056 41.8062 41.7807 41.7807 41.7807 41.7807 41.7807 41.7807 41.7804 41.7805 41.7807 41.7807 41.7807 41.7807 41.7807 41.74 41.74 41.7807 41.7807 41.7807 41.7807 41.78 41.78 41.7807 41.7807 41.7807 41.7807 41.7807 41.7055 41.7807 41.7807 41.7807 41.7807 41.7807 41.7807 41.7807 41.7807 41.7805 41.7807 41.7599 41.7788 
        </DataArray>
        <DataArray type="Float32" Name="F0_Mass fraction_SG_co2liq_mod.xml" format="ascii">
9.5944e-09 9.5944e-09 9.59457e-09 9.59433e-09 5.37997e-09 5.38388e-09 9.59454e-09 9.5945e-09 5.95076e-09 6.00337e-09 3.51982e-09 3.51941e-09 3.4121e-09 3.42859e-09 9.5944e-09 9.5944e-09 9.28135e-09 9.16622e-09 9.58997e-09 9.57065e-09 9.5711e-09 9.63826e-09 9.5944e-09 9.5944e-09 9.28709e-09 9.27926e-09 9.5944e-09 9.5944e-09 9.5944e-09 9.5944e-09 9.5944e-09 9.5944e-09 9.5977e-09 9.59641e-09 9.5944e-09 9.5944e-09 9.5944e-09 9.5944e-09 9.5944e-09 1.01521e-08 1.01521e-08 9.5944e-09 9.5944e-09 9.5944e-09 9.59443e-09 9.60314e-09 9.60373e-09 9.59444e-09 9.5944e-09 9.5944e-09 9.5944e-09 9.5944e-09 1.07523e-08 9.5944e-09 9.5944e-09 9.5944e-09 9.5944e-09 9.5944e-09 9.5944e-09 9.5944e-09 9.59441e-09 9.59691e-09 9.59454e-09 9.87537e-09 9.61917e-09 
        </DataArray>
        <DataArray type="Float32" Name="F1_Alpha_SG_co2gas_mod.xml" format="ascii">
1 1 1 1 1 1 1 1 1 1 1 1 1 1 1 1 1 1 1 1 1 1 1 1 1 1 1 1 1 1 1 1 1 1 1 1 1 1 1 1 1 1 1 1 1 1 1 1 1 1 1 1 1 1 1 1 1 1 1 1 1 1 1 1 1 
        </DataArray>
        <DataArray type="Float32" Name="F1_Density_SG_co2gas_mod.xml" format="ascii">
106.138 106.138 106.136 106.138 191.942 191.798 106.136 106.137 173.007 171.448 298.403 298.44 308.252 306.698 106.138 106.138 109.784 111.189 106.188 106.406 106.401 105.646 106.138 106.138 109.715 109.809 106.138 106.138 106.138 106.138 106.138 106.138 106.101 106.115 106.138 106.138 106.138 106.138 106.138 100.208 100.208 106.138 106.138 106.138 106.137 106.039 106.033 106.137 106.138 106.138 106.138 106.138 94.5238 106.138 106.138 106.138 106.138 106.138 106.138 106.138 106.138 106.11 106.136 103.065 105.86 
        </DataArray>
        <DataArray type="Float32" Name="F1_Temperature_SG_co2gas_mod.xml" format="ascii">
466.385 466.385 466.385 466.386 448.063 448.03 466.385 466.385 452.236 452.804 385.667 385.671 392.434 392.539 466.385 466.385 467.906 468.302 466.4 466.46 466.458 466.259 466.385 466.385 468.45 468.496 466.385 466.385 466.385 466.385 466.385 466.385 466.376 466.379 466.385 466.385 466.385 466.385 466.385 464.835 464.835 466.385 466.385 466.385 466.385 466.359 466.358 466.385 466.385 466.385 466.385 466.385 468.294 466.385 466.385 466.385 466.385 466.385 466.385 466.385 466.385 466.378 466.385 465.574 466.313 
        </DataArray>
        <DataArray type="Float32" Name="F1_Mass fraction_SG_co2gas_mod.xml" format="ascii">
1 1 1 1 1 1 1 1 1 1 1 1 1 1 1 1 1 1 1 1 1 1 1 1 1 1 1 1 1 1 1 1 1 1 1 1 1 1 1 1 1 1 1 1 1 1 1 1 1 1 1 1 1 1 1 1 1 1 1 1 1 1 1 1 1 
        </DataArray>
        <DataArray type="Float32" Name="Density_Mixture" format="ascii">
106.138 106.138 106.136 106.138 191.942 191.798 106.136 106.137 173.007 171.448 298.403 298.44 308.252 306.698 106.138 106.138 109.784 111.189 106.188 106.406 106.401 105.646 106.138 106.138 109.715 109.809 106.138 106.138 106.138 106.138 106.138 106.138 106.101 106.115 106.138 106.138 106.138 106.138 106.138 100.208 100.208 106.138 106.138 106.138 106.137 106.039 106.033 106.137 106.138 106.138 106.138 106.138 94.5238 106.138 106.138 106.138 106.138 106.138 106.138 106.138 106.138 106.11 106.136 103.065 105.86 
        </DataArray>
        <DataArray type="Float32" Name="Pressure_Mixture" format="ascii">
6.27186e+06 6.27186e+06 6.27172e+06 6.27191e+06 1.15499e+07 1.15396e+07 6.27175e+06 6.27178e+06 1.04275e+07 1.03396e+07 1.57552e+07 1.57574e+07 1.66061e+07 1.65225e+07 6.27186e+06 6.27186e+06 6.5419e+06 6.6433e+06 6.27544e+06 6.29109e+06 6.29072e+06 6.23677e+06 6.27186e+06 6.27186e+06 6.54585e+06 6.55296e+06 6.27186e+06 6.27186e+06 6.27186e+06 6.27186e+06 6.27186e+06 6.27186e+06 6.2692e+06 6.27024e+06 6.27186e+06 6.27186e+06 6.27186e+06 6.27186e+06 6.27186e+06 5.84952e+06 5.84952e+06 6.27186e+06 6.27186e+06 6.27186e+06 6.27183e+06 6.26483e+06 6.26436e+06 6.27183e+06 6.27186e+06 6.27186e+06 6.27186e+06 6.27186e+06 5.51471e+06 6.27186e+06 6.27186e+06 6.27186e+06 6.27186e+06 6.27186e+06 6.27186e+06 6.27186e+06 6.27185e+06 6.26984e+06 6.27175e+06 6.05256e+06 6.25199e+06 
        </DataArray>
        <DataArray type="Float32" Name="Velocity_Mixture" NumberOfComponents="3" format="ascii">
-9.6422e-06 0 0 7.44647e-05 0 0 -0.00321185 0.00356874 0 0.0010775 0.00193262 0 167.616 -19.3703 0 167.877 20.1492 0 -0.00322848 0.00181499 0 -0.00241175 -0.00119458 0 142.353 38.6757 0 141.074 -32.8918 0 303.07 1.1847 0 303.042 -1.20438 0 284.087 -25.5672 0 277.619 45.2618 0 0 0 0 0 0 0 9.39514 0.302293 0 9.15645 2.41407 0 0.109997 -0.0373612 0 0.641677 -0.325556 0 0.61808 0.33556 0 -0.950305 -0.936387 0 0 0 0 0 0 0 10.5176 -2.95682 0 10.7664 3.18969 0 0 0 0 0 0 0 0 0 0 0 0 0 0 0 0 0 0 0 -0.0651881 0.00404665 0 -0.0579866 -0.0105385 0 0 0 0 0 0 0 0 0 0 0 0 0 0 0 0 3.25471 -1.48366 0 3.25471 1.48366 0 0 0 0 0 0 0 0 0 0 0.000118283 -0.000346483 0 0.0383968 -0.0659356 0 0.0452267 0.0660536 0 0.000151081 0.000383344 0 0 0 0 0 0 0 0 0 0 0 0 0 25.9975 0 0 0 0 0 0 0 0 0 0 0 0 0 0 0 0 0 0 0 0 0 0 0 2.82356e-05 2.31539e-07 0 0.0173174 0.00383928 0 0.00539283 -0.000215856 0 2.2314 -3.09304e-05 0 1.11531 -0.0450024 0 
        </DataArray>
        <DataArray type="Float32" Name="gradRho" format="ascii">
0.000543624 0.000210991 0.0066474 0.0111822 57.501 57.651 0.102012 0.103513 50.8422 51.3658 73.9421 74.061 32.2981 31.5629 9.62143e-06 2.06706e-06 21.0615 21.4782 1.09754 1.34786 1.22932 1.40337 4.2653e-08 1.53496e-07 29.1922 29.2513 0 0 0 2.68642e-09 1.65362e-10 0 0.163509 0.0233889 0 0 0 0 0 0.9535 0.953502 0 4.23673e-10 4.60149e-07 0.00025214 0.0335203 0.0307138 0.000227 4.08261e-07 4.23673e-10 0 0 0.819581 0 0 0 0 6.86021e-08 1.917e-08 2.00177e-05 5.73872e-05 0.0167435 0.00945016 1.25257 0.994965 
        </DataArray>
      </CellData>
    </Piece>
  </UnstructuredGrid>
</VTKFile>
