<?xml version="1.0"?>
<VTKFile type="UnstructuredGrid" version="0.1" byte_order="LittleEndian">
  <UnstructuredGrid>
    <Piece NumberOfPoints="50" NumberOfCells="65">
      <Points>
        <DataArray type="Float32" NumberOfComponents="3" format="ascii">
          0 5 0 0 -5 0 15 0.2 0 15 -0.2 0 35 0.2 0 35 -0.2 0 2.14286 4.31429 0 4.28571 3.62857 0 6.42857 2.94286 0 8.57143 2.25714 0 10.7143 1.57143 0 12.8571 0.885714 0 17.8571 0.2 0 20.7143 0.2 0 23.5714 0.2 0 26.4286 0.2 0 29.2857 0.2 0 32.1429 0.2 0 32.1429 -0.2 0 29.2857 -0.2 0 26.4286 -0.2 0 23.5714 -0.2 0 20.7143 -0.2 0 17.8571 -0.2 0 12.8571 -0.885714 0 10.7143 -1.57143 0 8.57143 -2.25714 0 6.42857 -2.94286 0 4.28571 -3.62857 0 2.14286 -4.31429 0 0 -2.5 0 0 -6.16307e-12 0 0 2.5 0 3.95974 -5.7158e-13 0 13.9286 -3.66374e-15 0 6.61813 2.81487e-12 0 2.86365 2.0434 0 2.86365 -2.0434 0 9.43036 1.987e-12 0 11.3926 2.79508e-14 0 4.83116 1.72297 0 4.83116 -1.72297 0 1.90629 -3.21031e-12 0 33.5714 0 0 16.4286 -1.80625e-18 0 25 6.93889e-18 0 19.2857 -6.93889e-18 0 30.7143 0 0 22.1429 0 0 27.8571 0 0 
        </DataArray>
      </Points>
      <Cells>
        <DataArray type="Int32" Name="connectivity" format="ascii">
          8 9 35 26 27 35 8 35 40 27 41 35 30 42 37 32 36 42 33 40 35 33 35 41 29 30 37 6 36 32 30 31 42 31 32 42 0 6 32 30 29 1 26 35 38 9 38 35 6 7 36 28 29 37 7 40 36 33 41 37 33 36 40 28 37 41 9 10 38 25 26 38 33 42 36 33 37 42 11 34 24 24 25 39 10 11 39 25 38 39 10 39 38 11 24 39 27 28 41 7 8 40 2 34 11 3 24 34 2 3 34 2 44 12 3 23 44 4 17 43 5 43 18 12 46 13 13 48 14 14 45 15 15 49 16 16 47 17 18 47 19 19 49 20 20 45 21 21 48 22 22 46 23 2 3 44 4 43 5 12 44 23 12 23 46 13 46 22 13 22 48 14 21 45 14 48 21 15 45 20 15 20 49 16 19 47 16 49 19 17 18 43 17 47 18 
        </DataArray>
        <DataArray type="Int32" Name="offsets" format="ascii">
          3 6 9 12 15 18 21 24 27 30 33 36 39 42 45 48 51 54 57 60 63 66 69 72 75 78 81 84 87 90 93 96 99 102 105 108 111 114 117 120 123 126 129 132 135 138 141 144 147 150 153 156 159 162 165 168 171 174 177 180 183 186 189 192 195 
        </DataArray>
        <DataArray type="UInt8" Name="types" format="ascii">
          5 5 5 5 5 5 5 5 5 5 5 5 5 5 5 5 5 5 5 5 5 5 5 5 5 5 5 5 5 5 5 5 5 5 5 5 5 5 5 5 5 5 5 5 5 5 5 5 5 5 5 5 5 5 5 5 5 5 5 5 5 5 5 5 5 
        </DataArray>
      </Cells>
      <CellData>
        <DataArray type="Float32" Name="F0_Alpha_SG_co2liq_mod.xml" format="ascii">
1.67016e-10 1.66212e-10 1.63228e-10 1.63689e-10 1.6508e-10 1.64975e-10 1.63267e-10 1.62988e-10 1.63108e-10 1.63084e-10 1.67786e-10 1.67786e-10 1.60274e-10 1.60575e-10 1.71186e-10 1.70723e-10 1.62153e-10 1.62471e-10 1.61565e-10 1.62078e-10 1.62728e-10 1.61074e-10 1.72485e-10 1.72698e-10 1.63443e-10 1.63393e-10 1.72682e-10 1.72684e-10 1.72688e-10 1.72691e-10 1.72675e-10 1.72684e-10 1.61528e-10 1.61396e-10 1.72682e-10 1.72682e-10 1.72682e-10 1.72682e-10 1.72682e-10 1.73397e-10 1.73397e-10 1.72682e-10 1.72683e-10 1.72696e-10 1.72775e-10 1.73034e-10 1.73034e-10 1.72774e-10 1.72696e-10 1.72683e-10 1.72682e-10 1.72682e-10 1.73422e-10 1.72682e-10 1.72682e-10 1.72682e-10 1.72683e-10 1.72691e-10 1.72684e-10 1.72701e-10 1.7275e-10 1.7297e-10 1.728e-10 1.73336e-10 1.73091e-10 
        </DataArray>
        <DataArray type="Float32" Name="F0_Density_SG_co2liq_mod.xml" format="ascii">
6218.53 6261.64 6437.85 6415.48 6525.77 6531.4 6510.15 6528.74 6654.84 6656.22 6347.91 6347.89 6853.75 6832.95 5984.86 6011.3 6679.25 6661.41 6669.09 6645.03 6609.41 6695.55 5909.43 5896.12 6585.32 6586.95 5897.13 5897.03 5896.78 5896.53 5897.59 5896.99 6593.94 6598.84 5897.13 5897.13 5897.13 5897.13 5897.13 5847.41 5847.41 5897.13 5897.05 5896.26 5891.19 5874 5874 5891.2 5896.26 5897.05 5897.13 5897.13 5841.72 5897.13 5897.13 5897.12 5897.08 5896.55 5897.01 5895.93 5892.76 5878.3 5889.53 5852.27 5869.95 
        </DataArray>
        <DataArray type="Float32" Name="F0_Temperature_SG_co2liq_mod.xml" format="ascii">
42.2671 42.2988 42.3959 42.3859 42.4303 42.4322 42.4247 42.4313 42.4689 42.4692 42.352 42.3519 42.5084 42.5052 41.9891 42.0346 42.4749 42.4705 42.4724 42.4664 42.4567 42.4787 41.8176 41.7775 42.4496 42.4501 41.7807 41.7804 41.7796 41.7788 41.7821 41.7802 42.4522 42.4536 41.7807 41.7807 41.7807 41.7807 41.7807 41.5796 41.5796 41.7807 41.7804 41.7779 41.7615 41.7001 41.7001 41.7615 41.7779 41.7804 41.7807 41.7807 41.5477 41.7807 41.7807 41.7806 41.7805 41.7788 41.7803 41.7769 41.7667 41.7164 41.756 41.6048 41.6841 
        </DataArray>
        <DataArray type="Float32" Name="F0_Mass fraction_SG_co2liq_mod.xml" format="ascii">
4.49444e-09 4.24383e-09 3.37402e-09 3.42796e-09 2.30138e-09 2.29324e-09 2.75913e-09 2.70555e-09 2.07182e-09 2.06997e-09 2.74559e-09 2.74566e-09 1.78774e-09 1.81252e-09 7.15055e-09 6.66979e-09 2.1144e-09 2.13693e-09 2.24652e-09 2.26658e-09 2.31707e-09 2.21358e-09 9.11382e-09 9.63717e-09 2.30486e-09 2.30595e-09 9.5946e-09 9.59862e-09 9.60934e-09 9.61964e-09 9.57509e-09 9.60026e-09 2.64252e-09 2.64348e-09 9.59434e-09 9.59439e-09 9.59438e-09 9.59441e-09 9.59441e-09 1.26284e-08 1.26283e-08 9.59458e-09 9.59763e-09 9.63098e-09 9.85344e-09 1.0724e-08 1.07241e-08 9.85304e-09 9.63099e-09 9.59764e-09 9.59459e-09 9.5944e-09 1.34276e-08 9.59441e-09 9.5945e-09 9.59472e-09 9.59635e-09 9.6189e-09 9.59939e-09 9.64539e-09 9.78304e-09 1.04861e-08 9.92978e-09 1.22031e-08 1.09672e-08 
        </DataArray>
        <DataArray type="Float32" Name="F1_Alpha_SG_co2gas_mod.xml" format="ascii">
1 1 1 1 1 1 1 1 1 1 1 1 1 1 1 1 1 1 1 1 1 1 1 1 1 1 1 1 1 1 1 1 1 1 1 1 1 1 1 1 1 1 1 1 1 1 1 1 1 1 1 1 1 1 1 1 1 1 1 1 1 1 1 1 1 
        </DataArray>
        <DataArray type="Float32" Name="F1_Density_SG_co2gas_mod.xml" format="ascii">
231.084 245.242 311.449 306.348 468.1 469.865 385.228 393.303 523.912 524.415 387.927 387.917 614.451 605.346 143.28 153.868 512.232 506.467 479.626 475.172 464.178 487.209 111.84 105.658 466.98 466.732 106.135 106.09 105.97 105.854 106.356 106.072 403.065 402.888 106.138 106.138 106.138 106.138 106.138 80.2891 80.2894 106.136 106.101 105.727 103.299 94.7784 94.7772 103.303 105.727 106.101 106.136 106.138 75.4481 106.138 106.137 106.134 106.116 105.863 106.082 105.567 104.055 96.964 102.491 83.1269 92.6427 
        </DataArray>
        <DataArray type="Float32" Name="F1_Temperature_SG_co2gas_mod.xml" format="ascii">
490.548 494.205 489.814 485.142 358.66 359.392 428.776 428.179 362.924 363.027 352.31 352.31 364.515 364.188 478.57 480.53 379.359 377.647 401.523 396.612 392.821 404.56 468.007 466.267 381.58 382.383 466.385 466.373 466.341 466.311 466.447 466.368 445.775 448.063 466.386 466.385 466.385 466.385 466.385 459.289 459.29 466.385 466.376 466.277 465.634 463.331 463.326 465.634 466.277 466.376 466.385 466.385 466.995 466.385 466.385 466.384 466.38 466.313 466.371 466.236 465.833 463.908 465.444 459.93 462.991 
        </DataArray>
        <DataArray type="Float32" Name="F1_Mass fraction_SG_co2gas_mod.xml" format="ascii">
1 1 1 1 1 1 1 1 1 1 1 1 1 1 1 1 1 1 1 1 1 1 1 1 1 1 1 1 1 1 1 1 1 1 1 1 1 1 1 1 1 1 1 1 1 1 1 1 1 1 1 1 1 1 1 1 1 1 1 1 1 1 1 1 1 
        </DataArray>
        <DataArray type="Float32" Name="Density_Mixture" format="ascii">
231.084 245.242 311.449 306.348 468.1 469.865 385.228 393.303 523.912 524.415 387.927 387.917 614.451 605.346 143.28 153.868 512.232 506.467 479.626 475.172 464.178 487.209 111.84 105.658 466.98 466.732 106.135 106.09 105.97 105.854 106.356 106.072 403.065 402.888 106.138 106.138 106.138 106.138 106.138 80.2891 80.2894 106.136 106.101 105.727 103.299 94.7784 94.7772 103.303 105.727 106.101 106.136 106.138 75.4481 106.138 106.137 106.134 106.116 105.863 106.082 105.567 104.055 96.964 102.491 83.1269 92.6427 
        </DataArray>
        <DataArray type="Float32" Name="Pressure_Mixture" format="ascii">
1.55056e+07 1.66394e+07 2.11731e+07 2.06048e+07 2.33907e+07 2.3532e+07 2.29985e+07 2.34652e+07 2.66083e+07 2.66425e+07 1.88766e+07 1.8876e+07 3.15011e+07 3.09925e+07 9.02912e+06 9.80549e+06 2.72126e+07 2.6771e+07 2.69612e+07 2.63652e+07 2.54802e+07 2.76154e+07 6.68264e+06 6.23772e+06 2.48803e+07 2.49208e+07 6.2717e+06 6.26846e+06 6.25986e+06 6.2516e+06 6.2875e+06 6.26715e+06 2.50952e+07 2.52171e+07 6.27191e+06 6.27186e+06 6.27188e+06 6.27185e+06 6.27185e+06 4.44626e+06 4.44629e+06 6.27171e+06 6.26926e+06 6.24253e+06 6.06916e+06 5.46394e+06 5.46377e+06 6.06946e+06 6.24252e+06 6.26925e+06 6.27171e+06 6.27186e+06 4.20882e+06 6.27185e+06 6.27178e+06 6.2716e+06 6.27029e+06 6.25219e+06 6.26784e+06 6.23106e+06 6.1231e+06 5.61845e+06 6.01195e+06 4.64243e+06 5.31629e+06 
        </DataArray>
        <DataArray type="Float32" Name="Velocity_Mixture" NumberOfComponents="3" format="ascii">
220.246 -35.3099 0 209.693 61.0518 0 265.691 -44.4731 0 269.965 48.6584 0 319.264 32.1309 0 319.017 -33.6115 0 297.013 -17.794 0 297.743 28.6782 0 301.201 52.9636 0 301.403 -53.4997 0 343.8 0.0518689 0 343.804 -0.0488967 0 267.823 -43.0686 0 269.104 46.5883 0 70.3066 19.4241 0 106.444 -26.4311 0 292.147 -72.9652 0 296.401 77.04 0 295.509 -74.6868 0 290.861 47.9181 0 299.268 -42.5445 0 290.092 86.4036 0 12.9402 -0.140881 0 -0.718893 0.0246395 0 306.574 -18.4985 0 305.92 17.4342 0 -0.00600791 -0.00133595 0 -0.053809 0.0232212 0 -0.454564 -0.0075136 0 -0.643047 -0.0590658 0 0.588347 -0.182853 0 -0.119986 0.160391 0 291.062 88.7203 0 291.598 -76.8759 0 0.00109232 -0.000245825 0 7.56817e-05 0.000216051 0 0.000205519 -0.000495213 0 0 -2.65882e-05 0 8.78145e-07 2.84855e-05 0 39.2466 -0.54479 0 39.2511 0.546376 0 0.00101961 -0.000621625 0 0.0196165 -0.00854724 0 0.242944 -0.0703816 0 1.97394 -0.314165 0 10.4584 -0.66975 0 10.445 0.658172 0 1.98772 0.307622 0 0.251762 0.0671397 0 0.0206554 0.0082399 0 0.0010984 0.000604298 0 1.8948e-05 0 0 74.586 0.00206491 0 0.000634924 0 0 0.000987715 9.58783e-05 0 0.0158353 -0.000403855 0 0.0222326 0.0017249 0 0.323691 0.0175619 0 0.250942 -0.00565609 0 2.5034 -0.0459611 0 3.02079 0.0573144 0 17.6654 0.0349028 0 14.8567 -0.0608796 0 61.5107 -0.00175566 0 47.9515 -0.0382419 0 
        </DataArray>
        <DataArray type="Float32" Name="gradRho" format="ascii">
36.157 35.1635 50.6725 46.4778 35.7362 35.6559 47.0698 50.2579 41.0264 42.0204 55.6822 56.9136 21.2567 19.2258 38.5761 35.7657 10.9321 9.6622 41.8466 27.7795 30.1655 40.8908 15.4681 12.6976 1.89163 2.45463 0.0293053 0.0864269 0.134876 0.308408 2.15958 0.0623509 44.4538 41.1351 0.00139062 0.00108344 0.000381643 1.301e-05 1.07952e-05 0.756553 0.756678 0.000226537 0.00284661 0.0223304 0.113548 0.311769 0.311796 0.113828 0.022309 0.00280365 0.000219693 0.000110057 0.697965 0.000350447 0.000434817 0.00659157 0.00783459 0.0896354 0.0785372 0.544479 0.601537 2.1445 2.01224 3.60329 3.53577 
        </DataArray>
      </CellData>
    </Piece>
  </UnstructuredGrid>
</VTKFile>
