<?xml version="1.0"?>
<VTKFile type="UnstructuredGrid" version="0.1" byte_order="LittleEndian">
  <UnstructuredGrid>
    <Piece NumberOfPoints="50" NumberOfCells="65">
      <Points>
        <DataArray type="Float32" NumberOfComponents="3" format="ascii">
          0 5 0 0 -5 0 15 0.2 0 15 -0.2 0 35 0.2 0 35 -0.2 0 2.14286 4.31429 0 4.28571 3.62857 0 6.42857 2.94286 0 8.57143 2.25714 0 10.7143 1.57143 0 12.8571 0.885714 0 17.8571 0.2 0 20.7143 0.2 0 23.5714 0.2 0 26.4286 0.2 0 29.2857 0.2 0 32.1429 0.2 0 32.1429 -0.2 0 29.2857 -0.2 0 26.4286 -0.2 0 23.5714 -0.2 0 20.7143 -0.2 0 17.8571 -0.2 0 12.8571 -0.885714 0 10.7143 -1.57143 0 8.57143 -2.25714 0 6.42857 -2.94286 0 4.28571 -3.62857 0 2.14286 -4.31429 0 0 -2.5 0 0 -6.16307e-12 0 0 2.5 0 3.95974 -5.7158e-13 0 13.9286 -3.66374e-15 0 6.61813 2.81487e-12 0 2.86365 2.0434 0 2.86365 -2.0434 0 9.43036 1.987e-12 0 11.3926 2.79508e-14 0 4.83116 1.72297 0 4.83116 -1.72297 0 1.90629 -3.21031e-12 0 33.5714 0 0 16.4286 -1.80625e-18 0 25 6.93889e-18 0 19.2857 -6.93889e-18 0 30.7143 0 0 22.1429 0 0 27.8571 0 0 
        </DataArray>
      </Points>
      <Cells>
        <DataArray type="Int32" Name="connectivity" format="ascii">
          8 9 35 26 27 35 8 35 40 27 41 35 30 42 37 32 36 42 33 40 35 33 35 41 29 30 37 6 36 32 30 31 42 31 32 42 0 6 32 30 29 1 26 35 38 9 38 35 6 7 36 28 29 37 7 40 36 33 41 37 33 36 40 28 37 41 9 10 38 25 26 38 33 42 36 33 37 42 11 34 24 24 25 39 10 11 39 25 38 39 10 39 38 11 24 39 27 28 41 7 8 40 2 34 11 3 24 34 2 3 34 2 44 12 3 23 44 4 17 43 5 43 18 12 46 13 13 48 14 14 45 15 15 49 16 16 47 17 18 47 19 19 49 20 20 45 21 21 48 22 22 46 23 2 3 44 4 43 5 12 44 23 12 23 46 13 46 22 13 22 48 14 21 45 14 48 21 15 45 20 15 20 49 16 19 47 16 49 19 17 18 43 17 47 18 
        </DataArray>
        <DataArray type="Int32" Name="offsets" format="ascii">
          3 6 9 12 15 18 21 24 27 30 33 36 39 42 45 48 51 54 57 60 63 66 69 72 75 78 81 84 87 90 93 96 99 102 105 108 111 114 117 120 123 126 129 132 135 138 141 144 147 150 153 156 159 162 165 168 171 174 177 180 183 186 189 192 195 
        </DataArray>
        <DataArray type="UInt8" Name="types" format="ascii">
          5 5 5 5 5 5 5 5 5 5 5 5 5 5 5 5 5 5 5 5 5 5 5 5 5 5 5 5 5 5 5 5 5 5 5 5 5 5 5 5 5 5 5 5 5 5 5 5 5 5 5 5 5 5 5 5 5 5 5 5 5 5 5 5 5 
        </DataArray>
      </Cells>
      <CellData>
        <DataArray type="Float32" Name="F0_Alpha_SG_co2liq_mod.xml" format="ascii">
1.67992e-10 1.67311e-10 1.64098e-10 1.64526e-10 1.6501e-10 1.64917e-10 1.63687e-10 1.63366e-10 1.63204e-10 1.63174e-10 1.67784e-10 1.67784e-10 1.60494e-10 1.60795e-10 1.71761e-10 1.71297e-10 1.62216e-10 1.62499e-10 1.61689e-10 1.62326e-10 1.6295e-10 1.61186e-10 1.72571e-10 1.72712e-10 1.63704e-10 1.63697e-10 1.72682e-10 1.72682e-10 1.72688e-10 1.7269e-10 1.72687e-10 1.72683e-10 1.61722e-10 1.61681e-10 1.72682e-10 1.72682e-10 1.72682e-10 1.72682e-10 1.72682e-10 1.73388e-10 1.73388e-10 1.72682e-10 1.72683e-10 1.72693e-10 1.72765e-10 1.73016e-10 1.73016e-10 1.72764e-10 1.72693e-10 1.72683e-10 1.72682e-10 1.72682e-10 1.73415e-10 1.72682e-10 1.72682e-10 1.72682e-10 1.72683e-10 1.72689e-10 1.72683e-10 1.72698e-10 1.72742e-10 1.72953e-10 1.72788e-10 1.73324e-10 1.73073e-10 
        </DataArray>
        <DataArray type="Float32" Name="F0_Density_SG_co2liq_mod.xml" format="ascii">
6162.98 6199.47 6383.52 6361.9 6524.28 6529.59 6475.54 6496.09 6646.26 6648.1 6347.84 6347.82 6837.94 6817.25 5952.24 5978.99 6669.55 6653.93 6652.64 6624.45 6589.81 6680.55 5904.15 5895.21 6568.12 6567.92 5897.13 5897.1 5896.73 5896.61 5896.8 5897.04 6570.28 6569.83 5897.13 5897.13 5897.13 5897.13 5897.13 5848.13 5848.13 5897.13 5897.07 5896.41 5891.83 5875.21 5875.21 5891.84 5896.41 5897.07 5897.13 5897.13 5842.31 5897.13 5897.13 5897.12 5897.09 5896.65 5897.04 5896.12 5893.27 5879.44 5890.29 5853.15 5871.22 
        </DataArray>
        <DataArray type="Float32" Name="F0_Temperature_SG_co2liq_mod.xml" format="ascii">
42.2199 42.2518 42.3706 42.3595 42.4297 42.4316 42.4116 42.4195 42.4667 42.4671 42.3519 42.3519 42.506 42.5026 41.924 41.9782 42.4725 42.4686 42.4683 42.4609 42.451 42.4752 41.8022 41.7746 42.4443 42.4442 41.7807 41.7806 41.7794 41.779 41.7796 41.7804 42.445 42.4448 41.7807 41.7807 41.7807 41.7807 41.7807 41.5834 41.5834 41.7807 41.7805 41.7784 41.7636 41.7048 41.7048 41.7637 41.7784 41.7805 41.7807 41.7807 41.5511 41.7807 41.7807 41.7807 41.7806 41.7792 41.7804 41.7775 41.7683 41.7206 41.7585 41.6091 41.6892 
        </DataArray>
        <DataArray type="Float32" Name="F0_Mass fraction_SG_co2liq_mod.xml" format="ascii">
4.92303e-09 4.66009e-09 3.61733e-09 3.68772e-09 2.31998e-09 2.31115e-09 2.89351e-09 2.83104e-09 2.09011e-09 2.08753e-09 2.74651e-09 2.74658e-09 1.80742e-09 1.83265e-09 7.85277e-09 7.25374e-09 2.14274e-09 2.16226e-09 2.29873e-09 2.3175e-09 2.37076e-09 2.25964e-09 9.31109e-09 9.67619e-09 2.33979e-09 2.34205e-09 9.59428e-09 9.5955e-09 9.61114e-09 9.61623e-09 9.60827e-09 9.59806e-09 2.74685e-09 2.76025e-09 9.59434e-09 9.59438e-09 9.5944e-09 9.5944e-09 9.5944e-09 1.25635e-08 1.25634e-08 9.59453e-09 9.59688e-09 9.62479e-09 9.82451e-09 1.06556e-08 1.06557e-08 9.82396e-09 9.62483e-09 9.5969e-09 9.59453e-09 9.5944e-09 1.33694e-08 9.59441e-09 9.59447e-09 9.59463e-09 9.59588e-09 9.61446e-09 9.59831e-09 9.63734e-09 9.76046e-09 1.04259e-08 9.89456e-09 1.2132e-08 1.0891e-08 
        </DataArray>
        <DataArray type="Float32" Name="F1_Alpha_SG_co2gas_mod.xml" format="ascii">
1 1 1 1 1 1 1 1 1 1 1 1 1 1 1 1 1 1 1 1 1 1 1 1 1 1 1 1 1 1 1 1 1 1 1 1 1 1 1 1 1 1 1 1 1 1 1 1 1 1 1 1 1 1 1 1 1 1 1 1 1 1 1 1 1 
        </DataArray>
        <DataArray type="Float32" Name="F1_Density_SG_co2gas_mod.xml" format="ascii">
210.303 222.579 289.583 283.833 464.044 465.933 366.324 374.858 518.966 519.654 387.789 387.779 607.192 598.137 130.191 141.194 504.918 500.061 467.938 464 452.938 476.542 109.427 105.225 459.541 459.063 106.139 106.125 105.95 105.892 105.982 106.097 386.828 384.827 106.138 106.138 106.138 106.138 106.138 80.7098 80.7102 106.136 106.11 105.797 103.608 95.3963 95.3953 103.614 105.796 106.11 106.136 106.138 75.7804 106.138 106.137 106.135 106.121 105.912 106.094 105.656 104.3 97.5331 102.862 83.6211 93.3016 
        </DataArray>
        <DataArray type="Float32" Name="F1_Temperature_SG_co2gas_mod.xml" format="ascii">
490.317 493.588 493.762 490.274 361.239 361.751 434.444 434.11 363.55 363.675 352.404 352.404 364.472 364.135 474.296 477.07 381.566 379.925 405.533 398.548 395.117 408.239 467.271 466.147 381.296 381.615 466.386 466.382 466.336 466.321 466.346 466.374 453.933 456.091 466.386 466.385 466.385 466.385 466.385 459.411 459.412 466.385 466.378 466.295 465.716 463.501 463.496 465.717 466.295 466.378 466.385 466.385 467.207 466.385 466.385 466.385 466.381 466.326 466.374 466.259 465.899 464.065 465.54 460.082 463.163 
        </DataArray>
        <DataArray type="Float32" Name="F1_Mass fraction_SG_co2gas_mod.xml" format="ascii">
1 1 1 1 1 1 1 1 1 1 1 1 1 1 1 1 1 1 1 1 1 1 1 1 1 1 1 1 1 1 1 1 1 1 1 1 1 1 1 1 1 1 1 1 1 1 1 1 1 1 1 1 1 1 1 1 1 1 1 1 1 1 1 1 1 
        </DataArray>
        <DataArray type="Float32" Name="Density_Mixture" format="ascii">
210.303 222.579 289.583 283.833 464.044 465.933 366.324 374.858 518.966 519.654 387.789 387.779 607.192 598.137 130.191 141.194 504.918 500.061 467.938 464 452.938 476.542 109.427 105.225 459.541 459.063 106.139 106.125 105.95 105.892 105.982 106.097 386.828 384.827 106.138 106.138 106.138 106.138 106.138 80.7098 80.7102 106.136 106.11 105.797 103.608 95.3963 95.3953 103.614 105.796 106.11 106.136 106.138 75.7804 106.138 106.137 106.135 106.121 105.912 106.094 105.656 104.3 97.5331 102.862 83.6211 93.3016 
        </DataArray>
        <DataArray type="Float32" Name="Pressure_Mixture" format="ascii">
1.40244e+07 1.50001e+07 1.97897e+07 1.9236e+07 2.33534e+07 2.34866e+07 2.21267e+07 2.26447e+07 2.63957e+07 2.64413e+07 1.88748e+07 1.88743e+07 3.11146e+07 3.06082e+07 8.04294e+06 8.85418e+06 2.69726e+07 2.65859e+07 2.65539e+07 2.58543e+07 2.49921e+07 2.72449e+07 6.50769e+06 6.20666e+06 2.4451e+07 2.44458e+07 6.27195e+06 6.27097e+06 6.25841e+06 6.25433e+06 6.26074e+06 6.26891e+06 2.45049e+07 2.44937e+07 6.27191e+06 6.27187e+06 6.27186e+06 6.27185e+06 6.27185e+06 4.47562e+06 4.47566e+06 6.27175e+06 6.26986e+06 6.24748e+06 6.09124e+06 5.50768e+06 5.50753e+06 6.09165e+06 6.24744e+06 6.26985e+06 6.27175e+06 6.27186e+06 4.23358e+06 6.27185e+06 6.2718e+06 6.27167e+06 6.27067e+06 6.25575e+06 6.26871e+06 6.23747e+06 6.14059e+06 5.65885e+06 6.03836e+06 4.67713e+06 5.36273e+06 
        </DataArray>
        <DataArray type="Float32" Name="Velocity_Mixture" NumberOfComponents="3" format="ascii">
198.83 -29.2609 0 185.369 54.2988 0 253.285 -40.9622 0 257.28 44.7322 0 320.561 30.7532 0 320.277 -32.3607 0 293.551 -16.8808 0 294.813 27.6997 0 302.538 51.7394 0 302.712 -52.3738 0 343.796 0.055378 0 343.8 -0.0524297 0 270.195 -42.904 0 271.546 46.2686 0 46.4017 11.5617 0 81.9825 -22.4668 0 292.712 -72.1014 0 296.953 76.8445 0 295.477 -73.3088 0 290.547 46.6547 0 298.946 -40.7925 0 289.951 86.3875 0 6.37751 -0.755514 0 -1.86937 0.534757 0 306.16 -17.7863 0 305.484 16.8956 0 0.00332621 -0.00102072 0 -0.00964142 0.0102775 0 -0.432219 -0.0110054 0 -0.477156 0.0901083 0 -0.306645 0.460563 0 -0.0778129 0.0977869 0 287.252 87.8411 0 288.582 -74.1883 0 0.00117659 0.000225291 0 0.000308455 -6.29515e-05 0 2.46e-05 -0.000224105 0 0 -1.84292e-05 0 0 1.98234e-05 0 37.3481 -0.566805 0 37.3525 0.568511 0 0.000703452 -0.000460234 0 0.0148695 -0.00689936 0 0.198565 -0.061592 0 1.71373 -0.29671 0 9.57538 -0.675146 0 9.56467 0.663239 0 1.73117 0.28707 0 0.206382 0.0589981 0 0.0157027 0.00665789 0 0.000762803 0.000449411 0 0 0 0 73.5166 0.00221271 0 0.000408405 0 0 0.000656626 6.54195e-05 0 0.0114381 -0.00029542 0 0.0163495 0.00134543 0 0.257611 0.0149861 0 0.196985 -0.00456412 0 2.12362 -0.0412359 0 2.58391 0.0621055 0 16.0881 0.039976 0 13.5081 -0.0788247 0 59.2937 -0.00186343 0 46.2616 -0.0439227 0 
        </DataArray>
        <DataArray type="Float32" Name="gradRho" format="ascii">
34.4367 33.4908 51.2564 47.9997 34.0054 33.9852 50.5416 53.8502 40.418 41.5387 52.9616 54.2784 20.6666 18.6914 31.7031 30.3355 12.6781 11.0367 45.6302 31.2071 33.702 44.3937 11.5325 8.30743 4.31906 0.663018 0.018273 0.0842258 0.0367032 0.332967 1.22708 0.0781822 47.3735 43.8555 0.000333506 0.000528628 0.000337777 9.53443e-06 7.79981e-06 0.767732 0.767867 0.000171143 0.00232914 0.0195018 0.104619 0.305225 0.305243 0.105071 0.0194168 0.00228873 0.000165547 2.24602e-05 0.710719 0.000244003 0.000305945 0.00501401 0.00600499 0.0746036 0.0649987 0.488165 0.54094 2.07051 1.9371 3.668 3.58948 
        </DataArray>
      </CellData>
    </Piece>
  </UnstructuredGrid>
</VTKFile>
