<?xml version="1.0"?>
<VTKFile type="UnstructuredGrid" version="0.1" byte_order="LittleEndian">
  <UnstructuredGrid>
    <Piece NumberOfPoints="50" NumberOfCells="65">
      <Points>
        <DataArray type="Float32" NumberOfComponents="3" format="ascii">
          0 5 0 0 -5 0 15 0.2 0 15 -0.2 0 35 0.2 0 35 -0.2 0 2.14286 4.31429 0 4.28571 3.62857 0 6.42857 2.94286 0 8.57143 2.25714 0 10.7143 1.57143 0 12.8571 0.885714 0 17.8571 0.2 0 20.7143 0.2 0 23.5714 0.2 0 26.4286 0.2 0 29.2857 0.2 0 32.1429 0.2 0 32.1429 -0.2 0 29.2857 -0.2 0 26.4286 -0.2 0 23.5714 -0.2 0 20.7143 -0.2 0 17.8571 -0.2 0 12.8571 -0.885714 0 10.7143 -1.57143 0 8.57143 -2.25714 0 6.42857 -2.94286 0 4.28571 -3.62857 0 2.14286 -4.31429 0 0 -2.5 0 0 -6.16307e-12 0 0 2.5 0 3.95974 -5.7158e-13 0 13.9286 -3.66374e-15 0 6.61813 2.81487e-12 0 2.86365 2.0434 0 2.86365 -2.0434 0 9.43036 1.987e-12 0 11.3926 2.79508e-14 0 4.83116 1.72297 0 4.83116 -1.72297 0 1.90629 -3.21031e-12 0 33.5714 0 0 16.4286 -1.80625e-18 0 25 6.93889e-18 0 19.2857 -6.93889e-18 0 30.7143 0 0 22.1429 0 0 27.8571 0 0 
        </DataArray>
      </Points>
      <Cells>
        <DataArray type="Int32" Name="connectivity" format="ascii">
          8 9 35 26 27 35 8 35 40 27 41 35 30 42 37 32 36 42 33 40 35 33 35 41 29 30 37 6 36 32 30 31 42 31 32 42 0 6 32 30 29 1 26 35 38 9 38 35 6 7 36 28 29 37 7 40 36 33 41 37 33 36 40 28 37 41 9 10 38 25 26 38 33 42 36 33 37 42 11 34 24 24 25 39 10 11 39 25 38 39 10 39 38 11 24 39 27 28 41 7 8 40 2 34 11 3 24 34 2 3 34 2 44 12 3 23 44 4 17 43 5 43 18 12 46 13 13 48 14 14 45 15 15 49 16 16 47 17 18 47 19 19 49 20 20 45 21 21 48 22 22 46 23 2 3 44 4 43 5 12 44 23 12 23 46 13 46 22 13 22 48 14 21 45 14 48 21 15 45 20 15 20 49 16 19 47 16 49 19 17 18 43 17 47 18 
        </DataArray>
        <DataArray type="Int32" Name="offsets" format="ascii">
          3 6 9 12 15 18 21 24 27 30 33 36 39 42 45 48 51 54 57 60 63 66 69 72 75 78 81 84 87 90 93 96 99 102 105 108 111 114 117 120 123 126 129 132 135 138 141 144 147 150 153 156 159 162 165 168 171 174 177 180 183 186 189 192 195 
        </DataArray>
        <DataArray type="UInt8" Name="types" format="ascii">
          5 5 5 5 5 5 5 5 5 5 5 5 5 5 5 5 5 5 5 5 5 5 5 5 5 5 5 5 5 5 5 5 5 5 5 5 5 5 5 5 5 5 5 5 5 5 5 5 5 5 5 5 5 5 5 5 5 5 5 5 5 5 5 5 5 
        </DataArray>
      </Cells>
      <CellData>
        <DataArray type="Float32" Name="F0_Alpha_SG_co2liq_mod.xml" format="ascii">
1.72682e-10 1.72682e-10 1.72682e-10 1.72682e-10 1.69701e-10 1.6971e-10 1.72682e-10 1.72682e-10 1.70365e-10 1.70404e-10 1.68514e-10 1.68513e-10 1.67753e-10 1.67812e-10 1.72682e-10 1.72682e-10 1.72494e-10 1.72416e-10 1.72675e-10 1.72664e-10 1.72664e-10 1.72704e-10 1.72682e-10 1.72682e-10 1.72474e-10 1.72469e-10 1.72682e-10 1.72682e-10 1.72682e-10 1.72682e-10 1.72682e-10 1.72682e-10 1.72684e-10 1.72683e-10 1.72682e-10 1.72682e-10 1.72682e-10 1.72682e-10 1.72682e-10 1.72888e-10 1.72888e-10 1.72682e-10 1.72682e-10 1.72682e-10 1.72682e-10 1.72686e-10 1.72687e-10 1.72682e-10 1.72682e-10 1.72682e-10 1.72682e-10 1.72682e-10 1.72997e-10 1.72682e-10 1.72682e-10 1.72682e-10 1.72682e-10 1.72682e-10 1.72682e-10 1.72682e-10 1.72682e-10 1.72683e-10 1.72682e-10 1.72797e-10 1.72693e-10 
        </DataArray>
        <DataArray type="Float32" Name="F0_Density_SG_co2liq_mod.xml" format="ascii">
5897.13 5897.13 5897.12 5897.13 6096.23 6095.74 5897.13 5897.13 6052.41 6049.49 6240.51 6240.59 6280.52 6276.51 5897.13 5897.13 5908.66 5913.49 5897.56 5898.27 5898.27 5895.7 5897.13 5897.13 5909.6 5909.88 5897.13 5897.13 5897.13 5897.13 5897.13 5897.13 5896.99 5897.09 5897.13 5897.13 5897.13 5897.13 5897.13 5883.78 5883.78 5897.13 5897.13 5897.13 5897.13 5896.85 5896.84 5897.13 5897.13 5897.13 5897.13 5897.13 5874.42 5897.13 5897.13 5897.13 5897.13 5897.13 5897.13 5897.13 5897.13 5897.04 5897.12 5889.75 5896.4 
        </DataArray>
        <DataArray type="Float32" Name="F0_Temperature_SG_co2liq_mod.xml" format="ascii">
41.7807 41.7807 41.7807 41.7807 42.1508 42.1502 41.7807 41.7807 42.0957 42.0917 42.2838 42.2838 42.3116 42.3089 41.7807 41.7807 41.8153 41.829 41.782 41.7842 41.7842 41.7761 41.7807 41.7807 41.818 41.8189 41.7807 41.7807 41.7807 41.7807 41.7807 41.7807 41.7802 41.7805 41.7807 41.7807 41.7807 41.7807 41.7807 41.7362 41.7362 41.7807 41.7807 41.7807 41.7807 41.7798 41.7798 41.7807 41.7807 41.7807 41.7807 41.7807 41.7017 41.7807 41.7807 41.7807 41.7807 41.7807 41.7807 41.7807 41.7807 41.7804 41.7807 41.7567 41.7784 
        </DataArray>
        <DataArray type="Float32" Name="F0_Mass fraction_SG_co2liq_mod.xml" format="ascii">
9.5944e-09 9.59439e-09 9.59468e-09 9.59428e-09 5.08299e-09 5.0876e-09 9.59457e-09 9.59452e-09 5.64514e-09 5.69235e-09 3.43329e-09 3.43293e-09 3.29905e-09 3.31788e-09 9.5944e-09 9.5944e-09 9.15292e-09 8.97829e-09 9.57661e-09 9.5471e-09 9.54715e-09 9.6552e-09 9.5944e-09 9.5944e-09 9.13142e-09 9.12136e-09 9.5944e-09 9.5944e-09 9.5944e-09 9.5944e-09 9.5944e-09 9.5944e-09 9.6001e-09 9.59626e-09 9.5944e-09 9.5944e-09 9.5944e-09 9.5944e-09 9.5944e-09 1.02049e-08 1.02049e-08 9.5944e-09 9.5944e-09 9.5944e-09 9.59445e-09 9.60608e-09 9.60671e-09 9.59446e-09 9.5944e-09 9.5944e-09 9.5944e-09 9.5944e-09 1.0815e-08 9.5944e-09 9.5944e-09 9.5944e-09 9.5944e-09 9.5944e-09 9.5944e-09 9.5944e-09 9.59441e-09 9.59806e-09 9.59461e-09 9.91891e-09 9.62522e-09 
        </DataArray>
        <DataArray type="Float32" Name="F1_Alpha_SG_co2gas_mod.xml" format="ascii">
1 1 1 1 1 1 1 1 1 1 1 1 1 1 1 1 1 1 1 1 1 1 1 1 1 1 1 1 1 1 1 1 1 1 1 1 1 1 1 1 1 1 1 1 1 1 1 1 1 1 1 1 1 1 1 1 1 1 1 1 1 1 1 1 1 
        </DataArray>
        <DataArray type="Float32" Name="F1_Density_SG_co2gas_mod.xml" format="ascii">
106.138 106.138 106.135 106.139 203.53 203.339 106.136 106.136 182.656 181.096 306.3 306.333 319.356 317.454 106.138 106.138 111.353 113.561 106.339 106.673 106.672 105.458 106.138 106.138 111.62 111.746 106.138 106.138 106.138 106.138 106.138 106.138 106.074 106.117 106.138 106.138 106.138 106.138 106.138 99.6805 99.6805 106.138 106.138 106.138 106.137 106.006 105.999 106.137 106.138 106.138 106.138 106.138 93.9674 106.138 106.138 106.138 106.138 106.138 106.138 106.138 106.138 106.097 106.135 102.605 105.792 
        </DataArray>
        <DataArray type="Float32" Name="F1_Temperature_SG_co2gas_mod.xml" format="ascii">
466.385 466.385 466.385 466.386 444.86 444.812 466.385 466.385 449.37 450.095 383.177 383.181 390.187 390.25 466.385 466.385 468.467 469.026 466.441 466.537 466.536 466.21 466.385 466.385 469.266 469.322 466.385 466.385 466.385 466.385 466.385 466.385 466.368 466.38 466.385 466.385 466.385 466.385 466.385 464.695 464.695 466.385 466.385 466.385 466.385 466.351 466.349 466.385 466.385 466.385 466.385 466.385 468.446 466.385 466.385 466.385 466.385 466.385 466.385 466.385 466.385 466.374 466.385 465.451 466.296 
        </DataArray>
        <DataArray type="Float32" Name="F1_Mass fraction_SG_co2gas_mod.xml" format="ascii">
1 1 1 1 1 1 1 1 1 1 1 1 1 1 1 1 1 1 1 1 1 1 1 1 1 1 1 1 1 1 1 1 1 1 1 1 1 1 1 1 1 1 1 1 1 1 1 1 1 1 1 1 1 1 1 1 1 1 1 1 1 1 1 1 1 
        </DataArray>
        <DataArray type="Float32" Name="Density_Mixture" format="ascii">
106.138 106.138 106.135 106.139 203.53 203.339 106.136 106.136 182.656 181.096 306.3 306.333 319.356 317.454 106.138 106.138 111.353 113.561 106.339 106.673 106.672 105.458 106.138 106.138 111.62 111.746 106.138 106.138 106.138 106.138 106.138 106.138 106.074 106.117 106.138 106.138 106.138 106.138 106.138 99.6805 99.6805 106.138 106.138 106.138 106.137 106.006 105.999 106.137 106.138 106.138 106.138 106.138 93.9674 106.138 106.138 106.138 106.138 106.138 106.138 106.138 106.138 106.097 106.135 102.605 105.792 
        </DataArray>
        <DataArray type="Float32" Name="Pressure_Mixture" format="ascii">
6.27186e+06 6.27186e+06 6.27164e+06 6.27195e+06 1.22064e+07 1.21928e+07 6.27172e+06 6.27176e+06 1.09828e+07 1.09004e+07 1.60853e+07 1.60873e+07 1.71324e+07 1.70279e+07 6.27186e+06 6.27186e+06 6.65711e+06 6.8158e+06 6.28625e+06 6.31029e+06 6.31024e+06 6.22332e+06 6.27186e+06 6.27186e+06 6.68809e+06 6.6975e+06 6.27186e+06 6.27186e+06 6.27186e+06 6.27186e+06 6.27186e+06 6.27186e+06 6.26727e+06 6.27036e+06 6.27186e+06 6.27186e+06 6.27186e+06 6.27186e+06 6.27186e+06 5.81202e+06 5.81202e+06 6.27186e+06 6.27186e+06 6.27186e+06 6.27181e+06 6.26247e+06 6.26196e+06 6.27181e+06 6.27186e+06 6.27186e+06 6.27186e+06 6.27186e+06 5.4791e+06 6.27186e+06 6.27186e+06 6.27186e+06 6.27186e+06 6.27186e+06 6.27186e+06 6.27186e+06 6.27185e+06 6.26891e+06 6.27169e+06 6.01974e+06 6.24716e+06 
        </DataArray>
        <DataArray type="Float32" Name="Velocity_Mixture" NumberOfComponents="3" format="ascii">
-3.08875e-05 0 0 0.000159944 1.86958e-06 0 -0.00533938 0.00597436 0 0.00199772 0.00346443 0 181.461 -18.8329 0 181.776 19.7332 0 -0.00385498 0.00228763 0 -0.0029554 -0.00145616 0 156.877 40.6573 0 155.302 -34.3921 0 308.066 1.07633 0 308.042 -1.09262 0 288.287 -27.5572 0 281.899 47.1299 0 0 0 0 0 0 0 13.9302 0.537453 0 13.3298 4.03646 0 0.424592 -0.243163 0 1.28971 -0.601341 0 1.25245 0.60879 0 -1.31846 -1.38362 0 0 0 0 0 0 0 15.8887 -4.20182 0 16.2164 4.54378 0 0 0 0 0 0 0 0 0 0 0 0 0 0 0 0 0 0 0 -0.110435 0.00319824 0 -0.0615044 -0.0131481 0 0 0 0 0 0 0 0 0 0 0 0 0 0 0 0 3.63934 -1.4731 0 3.63934 1.4731 0 0 0 0 0 0 0 0 0 0 0.000211715 -0.00055675 0 0.052399 -0.0807622 0 0.0609581 0.0799361 0 0.000264118 0.00060467 0 0 0 0 0 0 0 0 0 0 0 0 0 27.7549 0 0 0 0 0 0 0 0 0 0 0 0 0 0 0 0 0 0 0 0 6.43612e-06 0 0 6.12488e-05 9.34636e-06 0 0.0256674 0.00550522 0 0.00871229 -0.000346781 0 2.67469 -5.44016e-05 0 1.41652 -0.0557213 0 
        </DataArray>
        <DataArray type="Float32" Name="gradRho" format="ascii">
0.000894696 0.000381799 0.00606715 0.019393 59.4706 59.6172 0.20706 0.206478 53.3819 54.2719 71.3782 71.5276 32.6419 31.8244 2.04916e-05 4.19833e-06 23.9982 24.3675 1.56338 2.05968 1.87885 2.045 1.12375e-07 4.22737e-07 32.9965 33.0763 0 1.68875e-11 0 1.01216e-08 5.86611e-10 0 0.223391 0.0756685 0 0 0 0 0 0.950319 0.950323 0 1.22601e-09 9.74254e-07 0.000380542 0.0388499 0.0359002 0.000343666 8.60257e-07 1.22601e-09 0 0 0.823673 0 0 0 0 1.56293e-07 4.77734e-08 3.84007e-05 9.75529e-05 0.0228753 0.0137491 1.39649 1.13569 
        </DataArray>
      </CellData>
    </Piece>
  </UnstructuredGrid>
</VTKFile>
