<?xml version="1.0"?>
<VTKFile type="UnstructuredGrid" version="0.1" byte_order="LittleEndian">
  <UnstructuredGrid>
    <Piece NumberOfPoints="50" NumberOfCells="65">
      <Points>
        <DataArray type="Float32" NumberOfComponents="3" format="ascii">
          0 5 0 0 -5 0 15 0.2 0 15 -0.2 0 35 0.2 0 35 -0.2 0 2.14286 4.31429 0 4.28571 3.62857 0 6.42857 2.94286 0 8.57143 2.25714 0 10.7143 1.57143 0 12.8571 0.885714 0 17.8571 0.2 0 20.7143 0.2 0 23.5714 0.2 0 26.4286 0.2 0 29.2857 0.2 0 32.1429 0.2 0 32.1429 -0.2 0 29.2857 -0.2 0 26.4286 -0.2 0 23.5714 -0.2 0 20.7143 -0.2 0 17.8571 -0.2 0 12.8571 -0.885714 0 10.7143 -1.57143 0 8.57143 -2.25714 0 6.42857 -2.94286 0 4.28571 -3.62857 0 2.14286 -4.31429 0 0 -2.5 0 0 -6.16307e-12 0 0 2.5 0 3.95974 -5.7158e-13 0 13.9286 -3.66374e-15 0 6.61813 2.81487e-12 0 2.86365 2.0434 0 2.86365 -2.0434 0 9.43036 1.987e-12 0 11.3926 2.79508e-14 0 4.83116 1.72297 0 4.83116 -1.72297 0 1.90629 -3.21031e-12 0 33.5714 0 0 16.4286 -1.80625e-18 0 25 6.93889e-18 0 19.2857 -6.93889e-18 0 30.7143 0 0 22.1429 0 0 27.8571 0 0 
        </DataArray>
      </Points>
      <Cells>
        <DataArray type="Int32" Name="connectivity" format="ascii">
          8 9 35 26 27 35 8 35 40 27 41 35 30 42 37 32 36 42 33 40 35 33 35 41 29 30 37 6 36 32 30 31 42 31 32 42 0 6 32 30 29 1 26 35 38 9 38 35 6 7 36 28 29 37 7 40 36 33 41 37 33 36 40 28 37 41 9 10 38 25 26 38 33 42 36 33 37 42 11 34 24 24 25 39 10 11 39 25 38 39 10 39 38 11 24 39 27 28 41 7 8 40 2 34 11 3 24 34 2 3 34 2 44 12 3 23 44 4 17 43 5 43 18 12 46 13 13 48 14 14 45 15 15 49 16 16 47 17 18 47 19 19 49 20 20 45 21 21 48 22 22 46 23 2 3 44 4 43 5 12 44 23 12 23 46 13 46 22 13 22 48 14 21 45 14 48 21 15 45 20 15 20 49 16 19 47 16 49 19 17 18 43 17 47 18 
        </DataArray>
        <DataArray type="Int32" Name="offsets" format="ascii">
          3 6 9 12 15 18 21 24 27 30 33 36 39 42 45 48 51 54 57 60 63 66 69 72 75 78 81 84 87 90 93 96 99 102 105 108 111 114 117 120 123 126 129 132 135 138 141 144 147 150 153 156 159 162 165 168 171 174 177 180 183 186 189 192 195 
        </DataArray>
        <DataArray type="UInt8" Name="types" format="ascii">
          5 5 5 5 5 5 5 5 5 5 5 5 5 5 5 5 5 5 5 5 5 5 5 5 5 5 5 5 5 5 5 5 5 5 5 5 5 5 5 5 5 5 5 5 5 5 5 5 5 5 5 5 5 5 5 5 5 5 5 5 5 5 5 5 5 
        </DataArray>
      </Cells>
      <CellData>
        <DataArray type="Float32" Name="F0_Alpha_SG_co2liq_mod.xml" format="ascii">
1.72682e-10 1.72682e-10 1.72682e-10 1.72682e-10 1.71676e-10 1.71677e-10 1.72682e-10 1.72682e-10 1.71939e-10 1.71963e-10 1.69686e-10 1.69686e-10 1.69592e-10 1.69594e-10 1.72682e-10 1.72682e-10 1.72682e-10 1.7269e-10 1.72686e-10 1.72683e-10 1.72683e-10 1.72683e-10 1.72682e-10 1.72682e-10 1.72703e-10 1.72703e-10 1.72682e-10 1.72682e-10 1.72682e-10 1.72682e-10 1.72682e-10 1.72682e-10 1.72682e-10 1.72682e-10 1.72682e-10 1.72682e-10 1.72682e-10 1.72682e-10 1.72682e-10 1.72784e-10 1.72784e-10 1.72682e-10 1.72682e-10 1.72682e-10 1.72682e-10 1.72682e-10 1.72682e-10 1.72682e-10 1.72682e-10 1.72682e-10 1.72682e-10 1.72682e-10 1.72908e-10 1.72682e-10 1.72682e-10 1.72682e-10 1.72682e-10 1.72682e-10 1.72682e-10 1.72682e-10 1.72682e-10 1.72682e-10 1.72682e-10 1.72713e-10 1.72684e-10 
        </DataArray>
        <DataArray type="Float32" Name="F0_Density_SG_co2liq_mod.xml" format="ascii">
5897.13 5897.13 5897.13 5897.13 5963.82 5963.77 5897.13 5897.13 5946.57 5945.01 6136.52 6136.55 6136.83 6136.48 5897.13 5897.13 5897.11 5896.61 5896.84 5897.09 5897.09 5897.05 5897.13 5897.13 5895.76 5895.77 5897.13 5897.13 5897.13 5897.13 5897.13 5897.13 5897.13 5897.12 5897.13 5897.13 5897.13 5897.13 5897.13 5890.6 5890.6 5897.13 5897.13 5897.13 5897.13 5897.11 5897.1 5897.13 5897.13 5897.13 5897.13 5897.13 5881.16 5897.13 5897.13 5897.13 5897.13 5897.13 5897.13 5897.13 5897.13 5897.13 5897.13 5895.12 5897.02 
        </DataArray>
        <DataArray type="Float32" Name="F0_Temperature_SG_co2liq_mod.xml" format="ascii">
41.7807 41.7807 41.7807 41.7807 41.9484 41.9483 41.7807 41.7807 41.9115 41.908 42.1943 42.1943 42.1946 42.1942 41.7807 41.7807 41.7806 41.779 41.7798 41.7806 41.7805 41.7804 41.7807 41.7807 41.7763 41.7764 41.7807 41.7807 41.7807 41.7807 41.7807 41.7807 41.7807 41.7806 41.7807 41.7807 41.7807 41.7807 41.7807 41.7596 41.7596 41.7807 41.7807 41.7807 41.7807 41.7806 41.7806 41.7807 41.7807 41.7807 41.7807 41.7807 41.7269 41.7807 41.7807 41.7807 41.7807 41.7807 41.7807 41.7807 41.7807 41.7807 41.7807 41.7743 41.7803 
        </DataArray>
        <DataArray type="Float32" Name="F0_Mass fraction_SG_co2liq_mod.xml" format="ascii">
9.5944e-09 9.5944e-09 9.5944e-09 9.5944e-09 7.37135e-09 7.3724e-09 9.59441e-09 9.5944e-09 7.83226e-09 7.87537e-09 4.28003e-09 4.27982e-09 4.33043e-09 4.33553e-09 9.5944e-09 9.5944e-09 9.59568e-09 9.61651e-09 9.60652e-09 9.59592e-09 9.59605e-09 9.59791e-09 9.5944e-09 9.5944e-09 9.65268e-09 9.65224e-09 9.5944e-09 9.5944e-09 9.5944e-09 9.5944e-09 9.5944e-09 9.5944e-09 9.59438e-09 9.59476e-09 9.5944e-09 9.5944e-09 9.5944e-09 9.5944e-09 9.5944e-09 9.88009e-09 9.88009e-09 9.5944e-09 9.5944e-09 9.5944e-09 9.5944e-09 9.5953e-09 9.59548e-09 9.5944e-09 9.5944e-09 9.5944e-09 9.5944e-09 9.5944e-09 1.04033e-08 9.5944e-09 9.5944e-09 9.5944e-09 9.5944e-09 9.5944e-09 9.5944e-09 9.5944e-09 9.5944e-09 9.59453e-09 9.5944e-09 9.67979e-09 9.59886e-09 
        </DataArray>
        <DataArray type="Float32" Name="F1_Alpha_SG_co2gas_mod.xml" format="ascii">
1 1 1 1 1 1 1 1 1 1 1 1 1 1 1 1 1 1 1 1 1 1 1 1 1 1 1 1 1 1 1 1 1 1 1 1 1 1 1 1 1 1 1 1 1 1 1 1 1 1 1 1 1 1 1 1 1 1 1 1 1 1 1 1 1 
        </DataArray>
        <DataArray type="Float32" Name="F1_Density_SG_co2gas_mod.xml" format="ascii">
106.138 106.138 106.138 106.138 138.895 138.875 106.138 106.138 130.543 129.813 243.289 243.301 240.336 240.042 106.138 106.138 106.123 105.889 106.001 106.121 106.119 106.098 106.138 106.138 105.485 105.49 106.138 106.138 106.138 106.138 106.138 106.138 106.138 106.134 106.138 106.138 106.138 106.138 106.138 103.015 103.015 106.138 106.138 106.138 106.138 106.128 106.126 106.138 106.138 106.138 106.138 106.138 97.7477 106.138 106.138 106.138 106.138 106.138 106.138 106.138 106.138 106.136 106.138 105.185 106.088 
        </DataArray>
        <DataArray type="Float32" Name="F1_Temperature_SG_co2gas_mod.xml" format="ascii">
466.385 466.385 466.385 466.385 462.202 462.199 466.385 466.385 463.742 463.769 403.513 403.514 408.714 408.935 466.385 466.385 466.401 466.333 466.35 466.381 466.38 466.375 466.385 466.385 466.222 466.223 466.385 466.385 466.385 466.385 466.385 466.385 466.385 466.384 466.385 466.385 466.385 466.385 466.385 465.571 465.571 466.385 466.385 466.385 466.385 466.383 466.382 466.385 466.385 466.385 466.385 466.385 467.361 466.385 466.385 466.385 466.385 466.385 466.385 466.385 466.385 466.385 466.385 466.135 466.372 
        </DataArray>
        <DataArray type="Float32" Name="F1_Mass fraction_SG_co2gas_mod.xml" format="ascii">
1 1 1 1 1 1 1 1 1 1 1 1 1 1 1 1 1 1 1 1 1 1 1 1 1 1 1 1 1 1 1 1 1 1 1 1 1 1 1 1 1 1 1 1 1 1 1 1 1 1 1 1 1 1 1 1 1 1 1 1 1 1 1 1 1 
        </DataArray>
        <DataArray type="Float32" Name="Density_Mixture" format="ascii">
106.138 106.138 106.138 106.138 138.895 138.875 106.138 106.138 130.543 129.813 243.289 243.301 240.336 240.042 106.138 106.138 106.123 105.889 106.001 106.121 106.119 106.098 106.138 106.138 105.485 105.49 106.138 106.138 106.138 106.138 106.138 106.138 106.138 106.134 106.138 106.138 106.138 106.138 106.138 103.015 103.015 106.138 106.138 106.138 106.138 106.128 106.126 106.138 106.138 106.138 106.138 106.138 97.7477 106.138 106.138 106.138 106.138 106.138 106.138 106.138 106.138 106.136 106.138 105.185 106.088 
        </DataArray>
        <DataArray type="Float32" Name="Pressure_Mixture" format="ascii">
6.27186e+06 6.27186e+06 6.27185e+06 6.27186e+06 8.39697e+06 8.39557e+06 6.27185e+06 6.27186e+06 7.86782e+06 7.81938e+06 1.33094e+07 1.33102e+07 1.33179e+07 1.33082e+07 6.27186e+06 6.27186e+06 6.27113e+06 6.2543e+06 6.26212e+06 6.27063e+06 6.27053e+06 6.26903e+06 6.27186e+06 6.27186e+06 6.22537e+06 6.22573e+06 6.27186e+06 6.27186e+06 6.27186e+06 6.27186e+06 6.27186e+06 6.27186e+06 6.27188e+06 6.27157e+06 6.27186e+06 6.27186e+06 6.27186e+06 6.27186e+06 6.27186e+06 6.04915e+06 6.04915e+06 6.27186e+06 6.27186e+06 6.27186e+06 6.27186e+06 6.27114e+06 6.27099e+06 6.27186e+06 6.27186e+06 6.27186e+06 6.27186e+06 6.27186e+06 5.71982e+06 6.27186e+06 6.27186e+06 6.27186e+06 6.27186e+06 6.27186e+06 6.27186e+06 6.27186e+06 6.27186e+06 6.27176e+06 6.27185e+06 6.20378e+06 6.26827e+06 
        </DataArray>
        <DataArray type="Float32" Name="Velocity_Mixture" NumberOfComponents="3" format="ascii">
0 0 0 0 0 0 -6.94347e-05 9.15301e-05 0 6.53279e-06 1.17956e-05 0 81.6748 -16.7853 0 81.7169 16.9592 0 -0.000158935 7.70064e-05 0 -6.70675e-06 -1.12756e-06 0 61.4436 22.4826 0 61.1331 -20.2266 0 260.066 1.70249 0 260.052 -1.71288 0 245.129 -12.9725 0 239.988 28.594 0 0 0 0 0 0 0 -1.00943 -0.786995 0 -0.546583 0.116524 0 -0.257102 0.217209 0 -0.0361794 0.0137595 0 -0.034328 0.00152139 0 -0.079541 -0.063271 0 0 0 0 0 0 0 -1.46755 0.598758 0 -1.4566 -0.593051 0 0 0 0 0 0 0 0 0 0 0 0 0 0 0 0 0 0 0 0.000609986 -0.000138899 0 -0.00988655 -0.00259159 0 0 0 0 0 0 0 0 0 0 0 0 0 0 0 0 1.42862 -1.50889 0 1.42862 1.50889 0 0 0 0 0 0 0 0 0 0 0 -4.8033e-06 0 0.00353944 -0.0112051 0 0.00463629 0.0128174 0 0 8.32518e-06 0 0 0 0 0 0 0 0 0 0 0 0 0 15.9274 0 0 0 0 0 0 0 0 0 0 0 0 0 0 0 0 0 0 0 0 0 0 0 0 0 0 0.000866969 0.00030281 0 0.000133576 0 0 0.579389 0 0 0.173322 -0.00752803 0 
        </DataArray>
        <DataArray type="Float32" Name="gradRho" format="ascii">
1.2785e-05 2.51063e-06 0.00122956 7.8989e-05 41.5935 41.6742 0.00715788 0.0065922 34.2539 34.0957 72.5038 72.5241 26.0935 25.8516 9.68118e-09 6.17767e-09 7.85711 8.11509 0.0332553 0.216616 0.21194 0.0836187 3.13423e-10 2.66965e-11 11.2798 11.2869 0 0 0 0 0 0 0.0139047 0.046734 0 0 0 0 0 0.960985 0.960985 0 0 3.48434e-09 9.79876e-06 0.00881996 0.00785996 8.80063e-06 3.17898e-09 0 0 0 0.759433 0 0 0 0 3.32181e-10 0 2.14588e-07 1.26971e-06 0.00176448 0.000481312 0.524485 0.319701 
        </DataArray>
      </CellData>
    </Piece>
  </UnstructuredGrid>
</VTKFile>
