<?xml version="1.0"?>
<VTKFile type="UnstructuredGrid" version="0.1" byte_order="LittleEndian">
  <UnstructuredGrid>
    <Piece NumberOfPoints="50" NumberOfCells="65">
      <Points>
        <DataArray type="Float32" NumberOfComponents="3" format="ascii">
          0 5 0 0 -5 0 15 0.2 0 15 -0.2 0 35 0.2 0 35 -0.2 0 2.14286 4.31429 0 4.28571 3.62857 0 6.42857 2.94286 0 8.57143 2.25714 0 10.7143 1.57143 0 12.8571 0.885714 0 17.8571 0.2 0 20.7143 0.2 0 23.5714 0.2 0 26.4286 0.2 0 29.2857 0.2 0 32.1429 0.2 0 32.1429 -0.2 0 29.2857 -0.2 0 26.4286 -0.2 0 23.5714 -0.2 0 20.7143 -0.2 0 17.8571 -0.2 0 12.8571 -0.885714 0 10.7143 -1.57143 0 8.57143 -2.25714 0 6.42857 -2.94286 0 4.28571 -3.62857 0 2.14286 -4.31429 0 0 -2.5 0 0 -6.16307e-12 0 0 2.5 0 3.95974 -5.7158e-13 0 13.9286 -3.66374e-15 0 6.61813 2.81487e-12 0 2.86365 2.0434 0 2.86365 -2.0434 0 9.43036 1.987e-12 0 11.3926 2.79508e-14 0 4.83116 1.72297 0 4.83116 -1.72297 0 1.90629 -3.21031e-12 0 33.5714 0 0 16.4286 -1.80625e-18 0 25 6.93889e-18 0 19.2857 -6.93889e-18 0 30.7143 0 0 22.1429 0 0 27.8571 0 0 
        </DataArray>
      </Points>
      <Cells>
        <DataArray type="Int32" Name="connectivity" format="ascii">
          8 9 35 26 27 35 8 35 40 27 41 35 30 42 37 32 36 42 33 40 35 33 35 41 29 30 37 6 36 32 30 31 42 31 32 42 0 6 32 30 29 1 26 35 38 9 38 35 6 7 36 28 29 37 7 40 36 33 41 37 33 36 40 28 37 41 9 10 38 25 26 38 33 42 36 33 37 42 11 34 24 24 25 39 10 11 39 25 38 39 10 39 38 11 24 39 27 28 41 7 8 40 2 34 11 3 24 34 2 3 34 2 44 12 3 23 44 4 17 43 5 43 18 12 46 13 13 48 14 14 45 15 15 49 16 16 47 17 18 47 19 19 49 20 20 45 21 21 48 22 22 46 23 2 3 44 4 43 5 12 44 23 12 23 46 13 46 22 13 22 48 14 21 45 14 48 21 15 45 20 15 20 49 16 19 47 16 49 19 17 18 43 17 47 18 
        </DataArray>
        <DataArray type="Int32" Name="offsets" format="ascii">
          3 6 9 12 15 18 21 24 27 30 33 36 39 42 45 48 51 54 57 60 63 66 69 72 75 78 81 84 87 90 93 96 99 102 105 108 111 114 117 120 123 126 129 132 135 138 141 144 147 150 153 156 159 162 165 168 171 174 177 180 183 186 189 192 195 
        </DataArray>
        <DataArray type="UInt8" Name="types" format="ascii">
          5 5 5 5 5 5 5 5 5 5 5 5 5 5 5 5 5 5 5 5 5 5 5 5 5 5 5 5 5 5 5 5 5 5 5 5 5 5 5 5 5 5 5 5 5 5 5 5 5 5 5 5 5 5 5 5 5 5 5 5 5 5 5 5 5 
        </DataArray>
      </Cells>
      <CellData>
        <DataArray type="Float32" Name="F0_Alpha_SG_co2liq_mod.xml" format="ascii">
1.72682e-10 1.72682e-10 1.72682e-10 1.72682e-10 1.72328e-10 1.72328e-10 1.72682e-10 1.72682e-10 1.72426e-10 1.72431e-10 1.70667e-10 1.70667e-10 1.70742e-10 1.70739e-10 1.72682e-10 1.72682e-10 1.72685e-10 1.72687e-10 1.72683e-10 1.72682e-10 1.72682e-10 1.72682e-10 1.72682e-10 1.72682e-10 1.7269e-10 1.7269e-10 1.72682e-10 1.72682e-10 1.72682e-10 1.72682e-10 1.72682e-10 1.72682e-10 1.72682e-10 1.72682e-10 1.72682e-10 1.72682e-10 1.72682e-10 1.72682e-10 1.72682e-10 1.72731e-10 1.72731e-10 1.72682e-10 1.72682e-10 1.72682e-10 1.72682e-10 1.72682e-10 1.72682e-10 1.72682e-10 1.72682e-10 1.72682e-10 1.72682e-10 1.72682e-10 1.7285e-10 1.72682e-10 1.72682e-10 1.72682e-10 1.72682e-10 1.72682e-10 1.72682e-10 1.72682e-10 1.72682e-10 1.72682e-10 1.72682e-10 1.72689e-10 1.72682e-10 
        </DataArray>
        <DataArray type="Float32" Name="F0_Density_SG_co2liq_mod.xml" format="ascii">
5897.13 5897.13 5897.13 5897.13 5920.55 5920.54 5897.13 5897.13 5914.08 5913.75 6056.64 6056.64 6048.46 6048.5 5897.13 5897.13 5896.91 5896.82 5897.09 5897.13 5897.13 5897.12 5897.13 5897.13 5896.64 5896.64 5897.13 5897.13 5897.13 5897.13 5897.13 5897.13 5897.13 5897.13 5897.13 5897.13 5897.13 5897.13 5897.13 5894.01 5894.01 5897.13 5897.13 5897.13 5897.13 5897.13 5897.13 5897.13 5897.13 5897.13 5897.13 5897.13 5885.51 5897.13 5897.13 5897.13 5897.13 5897.13 5897.13 5897.13 5897.13 5897.13 5897.13 5896.69 5897.12 
        </DataArray>
        <DataArray type="Float32" Name="F0_Temperature_SG_co2liq_mod.xml" format="ascii">
41.7807 41.7807 41.7807 41.7807 41.8481 41.8481 41.7807 41.7807 41.8306 41.8297 42.1014 42.1014 42.0903 42.0904 41.7807 41.7807 41.78 41.7797 41.7805 41.7807 41.7807 41.7806 41.7807 41.7807 41.7791 41.7791 41.7807 41.7807 41.7807 41.7807 41.7807 41.7807 41.7807 41.7807 41.7807 41.7807 41.7807 41.7807 41.7807 41.7707 41.7707 41.7807 41.7807 41.7807 41.7807 41.7807 41.7807 41.7807 41.7807 41.7807 41.7807 41.7807 41.7423 41.7807 41.7807 41.7807 41.7807 41.7807 41.7807 41.7807 41.7807 41.7807 41.7807 41.7793 41.7806 
        </DataArray>
        <DataArray type="Float32" Name="F0_Mass fraction_SG_co2liq_mod.xml" format="ascii">
9.5944e-09 9.5944e-09 9.5944e-09 9.5944e-09 8.67089e-09 8.67099e-09 9.5944e-09 9.5944e-09 8.90652e-09 8.91849e-09 5.24e-09 5.23998e-09 5.38836e-09 5.38948e-09 9.5944e-09 9.5944e-09 9.60373e-09 9.60737e-09 9.59625e-09 9.5946e-09 9.59461e-09 9.59497e-09 9.5944e-09 9.5944e-09 9.61491e-09 9.61491e-09 9.5944e-09 9.5944e-09 9.5944e-09 9.5944e-09 9.5944e-09 9.5944e-09 9.5944e-09 9.5944e-09 9.5944e-09 9.5944e-09 9.5944e-09 9.5944e-09 9.5944e-09 9.72823e-09 9.72823e-09 9.5944e-09 9.5944e-09 9.5944e-09 9.5944e-09 9.59446e-09 9.59449e-09 9.5944e-09 9.5944e-09 9.5944e-09 9.5944e-09 9.5944e-09 1.01593e-08 9.5944e-09 9.5944e-09 9.5944e-09 9.5944e-09 9.5944e-09 9.5944e-09 9.5944e-09 9.5944e-09 9.5944e-09 9.5944e-09 9.6131e-09 9.59499e-09 
        </DataArray>
        <DataArray type="Float32" Name="F1_Alpha_SG_co2gas_mod.xml" format="ascii">
1 1 1 1 1 1 1 1 1 1 1 1 1 1 1 1 1 1 1 1 1 1 1 1 1 1 1 1 1 1 1 1 1 1 1 1 1 1 1 1 1 1 1 1 1 1 1 1 1 1 1 1 1 1 1 1 1 1 1 1 1 1 1 1 1 
        </DataArray>
        <DataArray type="Float32" Name="F1_Density_SG_co2gas_mod.xml" format="ascii">
106.138 106.138 106.138 106.138 117.667 117.666 106.138 106.138 114.494 114.337 197.265 197.265 191.658 191.617 106.138 106.138 106.033 105.992 106.117 106.136 106.135 106.131 106.138 106.138 105.907 105.907 106.138 106.138 106.138 106.138 106.138 106.138 106.138 106.138 106.138 106.138 106.138 106.138 106.138 104.652 104.652 106.138 106.138 106.138 106.138 106.137 106.137 106.138 106.138 106.138 106.138 106.138 100.136 106.138 106.138 106.138 106.138 106.138 106.138 106.138 106.138 106.138 106.138 105.928 106.131 
        </DataArray>
        <DataArray type="Float32" Name="F1_Temperature_SG_co2gas_mod.xml" format="ascii">
466.385 466.385 466.385 466.385 466.13 466.13 466.385 466.385 466.361 466.355 420.279 420.28 424.234 424.37 466.385 466.385 466.358 466.347 466.38 466.385 466.385 466.384 466.385 466.385 466.326 466.326 466.385 466.385 466.385 466.385 466.385 466.385 466.385 466.385 466.385 466.385 466.385 466.385 466.385 465.998 465.998 466.385 466.385 466.385 466.385 466.385 466.385 466.385 466.385 466.385 466.385 466.385 466.775 466.385 466.385 466.385 466.385 466.385 466.385 466.385 466.385 466.385 466.385 466.33 466.384 
        </DataArray>
        <DataArray type="Float32" Name="F1_Mass fraction_SG_co2gas_mod.xml" format="ascii">
1 1 1 1 1 1 1 1 1 1 1 1 1 1 1 1 1 1 1 1 1 1 1 1 1 1 1 1 1 1 1 1 1 1 1 1 1 1 1 1 1 1 1 1 1 1 1 1 1 1 1 1 1 1 1 1 1 1 1 1 1 1 1 1 1 
        </DataArray>
        <DataArray type="Float32" Name="Density_Mixture" format="ascii">
106.138 106.138 106.138 106.138 117.667 117.666 106.138 106.138 114.494 114.337 197.265 197.265 191.658 191.617 106.138 106.138 106.033 105.992 106.117 106.136 106.135 106.131 106.138 106.138 105.907 105.907 106.138 106.138 106.138 106.138 106.138 106.138 106.138 106.138 106.138 106.138 106.138 106.138 106.138 104.652 104.652 106.138 106.138 106.138 106.138 106.137 106.137 106.138 106.138 106.138 106.138 106.138 100.136 106.138 106.138 106.138 106.138 106.138 106.138 106.138 106.138 106.138 106.138 105.928 106.131 
        </DataArray>
        <DataArray type="Float32" Name="Pressure_Mixture" format="ascii">
6.27186e+06 6.27186e+06 6.27186e+06 6.27186e+06 7.04504e+06 7.04494e+06 6.27186e+06 6.27186e+06 6.83499e+06 6.82432e+06 1.11022e+07 1.11023e+07 1.08711e+07 1.08724e+07 6.27186e+06 6.27186e+06 6.26436e+06 6.26144e+06 6.27037e+06 6.2717e+06 6.27169e+06 6.2714e+06 6.27186e+06 6.27186e+06 6.2554e+06 6.2554e+06 6.27186e+06 6.27186e+06 6.27186e+06 6.27186e+06 6.27186e+06 6.27186e+06 6.27186e+06 6.27186e+06 6.27186e+06 6.27186e+06 6.27186e+06 6.27186e+06 6.27186e+06 6.16578e+06 6.16578e+06 6.27186e+06 6.27186e+06 6.27186e+06 6.27186e+06 6.27181e+06 6.27179e+06 6.27186e+06 6.27186e+06 6.27186e+06 6.27186e+06 6.27186e+06 5.87273e+06 6.27186e+06 6.27186e+06 6.27186e+06 6.27186e+06 6.27186e+06 6.27186e+06 6.27186e+06 6.27186e+06 6.27185e+06 6.27186e+06 6.25683e+06 6.27139e+06 
        </DataArray>
        <DataArray type="Float32" Name="Velocity_Mixture" NumberOfComponents="3" format="ascii">
0 0 0 0 0 0 0 0 0 0 0 0 31.5112 -9.86833 0 31.5154 9.88922 0 -6.24676e-07 0 0 0 0 0 21.574 10.5202 0 21.4046 -10.0204 0 208.948 1.48885 0 208.947 -1.48992 0 196.077 -5.44115 0 193.305 14.0112 0 0 0 0 0 0 0 -0.398624 -0.196083 0 -0.344732 0.0970189 0 -0.0402522 0.0343347 0 -0.00488944 0.00224311 0 -0.00473631 -0.0011961 0 -0.0123931 -0.0105688 0 0 0 0 0 0 0 -0.523221 0.232506 0 -0.52309 -0.232421 0 0 0 0 0 0 0 0 0 0 0 0 0 0 0 0 0 0 0 4.6357e-05 -8.35805e-06 0 2.52612e-05 1.24142e-05 0 0 0 0 0 0 0 0 0 0 0 0 0 0 0 0 0.588933 -1.26984 0 0.588933 1.26984 0 0 0 0 0 0 0 0 0 0 0 0 0 0.000241805 -0.00110299 0 0.000344491 0.0014503 0 0 0 0 0 0 0 0 0 0 0 0 0 0 0 0 9.44422 0 0 0 0 0 0 0 0 0 0 0 0 0 0 0 0 0 0 0 0 0 0 0 0 0 0 2.73334e-05 1.75669e-05 0 0 0 0 0.13103 0 0 0.0202157 -0.000710108 0 
        </DataArray>
        <DataArray type="Float32" Name="gradRho" format="ascii">
5.14339e-07 1.10511e-07 1.40671e-06 6.16694e-06 27.4827 27.5018 0.000910982 0.000866094 22.0802 22.0444 55.2817 55.2832 18.2547 18.208 1.05725e-10 9.50621e-10 2.731 2.7862 0.0375502 0.0776371 0.0762752 0.0467105 0 0 3.97089 3.97138 0 0 0 0 0 0 0.00224905 0.00729123 0 0 0 0 0 0.932875 0.932875 0 0 0 1.78881e-07 0.00142202 0.00130263 1.70188e-07 0 0 0 0 0.651099 0 0 0 0 0 0 1.13817e-09 1.03959e-08 0.0001565 1.40886e-05 0.193884 0.0718173 
        </DataArray>
      </CellData>
    </Piece>
  </UnstructuredGrid>
</VTKFile>
