<?xml version="1.0"?>
<VTKFile type="UnstructuredGrid" version="0.1" byte_order="LittleEndian">
  <UnstructuredGrid>
    <Piece NumberOfPoints="50" NumberOfCells="65">
      <Points>
        <DataArray type="Float32" NumberOfComponents="3" format="ascii">
          0 5 0 0 -5 0 15 0.2 0 15 -0.2 0 35 0.2 0 35 -0.2 0 2.14286 4.31429 0 4.28571 3.62857 0 6.42857 2.94286 0 8.57143 2.25714 0 10.7143 1.57143 0 12.8571 0.885714 0 17.8571 0.2 0 20.7143 0.2 0 23.5714 0.2 0 26.4286 0.2 0 29.2857 0.2 0 32.1429 0.2 0 32.1429 -0.2 0 29.2857 -0.2 0 26.4286 -0.2 0 23.5714 -0.2 0 20.7143 -0.2 0 17.8571 -0.2 0 12.8571 -0.885714 0 10.7143 -1.57143 0 8.57143 -2.25714 0 6.42857 -2.94286 0 4.28571 -3.62857 0 2.14286 -4.31429 0 0 -2.5 0 0 -6.16307e-12 0 0 2.5 0 3.95974 -5.7158e-13 0 13.9286 -3.66374e-15 0 6.61813 2.81487e-12 0 2.86365 2.0434 0 2.86365 -2.0434 0 9.43036 1.987e-12 0 11.3926 2.79508e-14 0 4.83116 1.72297 0 4.83116 -1.72297 0 1.90629 -3.21031e-12 0 33.5714 0 0 16.4286 -1.80625e-18 0 25 6.93889e-18 0 19.2857 -6.93889e-18 0 30.7143 0 0 22.1429 0 0 27.8571 0 0 
        </DataArray>
      </Points>
      <Cells>
        <DataArray type="Int32" Name="connectivity" format="ascii">
          8 9 35 26 27 35 8 35 40 27 41 35 30 42 37 32 36 42 33 40 35 33 35 41 29 30 37 6 36 32 30 31 42 31 32 42 0 6 32 30 29 1 26 35 38 9 38 35 6 7 36 28 29 37 7 40 36 33 41 37 33 36 40 28 37 41 9 10 38 25 26 38 33 42 36 33 37 42 11 34 24 24 25 39 10 11 39 25 38 39 10 39 38 11 24 39 27 28 41 7 8 40 2 34 11 3 24 34 2 3 34 2 44 12 3 23 44 4 17 43 5 43 18 12 46 13 13 48 14 14 45 15 15 49 16 16 47 17 18 47 19 19 49 20 20 45 21 21 48 22 22 46 23 2 3 44 4 43 5 12 44 23 12 23 46 13 46 22 13 22 48 14 21 45 14 48 21 15 45 20 15 20 49 16 19 47 16 49 19 17 18 43 17 47 18 
        </DataArray>
        <DataArray type="Int32" Name="offsets" format="ascii">
          3 6 9 12 15 18 21 24 27 30 33 36 39 42 45 48 51 54 57 60 63 66 69 72 75 78 81 84 87 90 93 96 99 102 105 108 111 114 117 120 123 126 129 132 135 138 141 144 147 150 153 156 159 162 165 168 171 174 177 180 183 186 189 192 195 
        </DataArray>
        <DataArray type="UInt8" Name="types" format="ascii">
          5 5 5 5 5 5 5 5 5 5 5 5 5 5 5 5 5 5 5 5 5 5 5 5 5 5 5 5 5 5 5 5 5 5 5 5 5 5 5 5 5 5 5 5 5 5 5 5 5 5 5 5 5 5 5 5 5 5 5 5 5 5 5 5 5 
        </DataArray>
      </Cells>
      <CellData>
        <DataArray type="Float32" Name="F0_Alpha_SG_co2liq_mod.xml" format="ascii">
1.72682e-10 1.72682e-10 1.72676e-10 1.7268e-10 1.65985e-10 1.66111e-10 1.72526e-10 1.72524e-10 1.66166e-10 1.65819e-10 1.67751e-10 1.67751e-10 1.64836e-10 1.65098e-10 1.72682e-10 1.72682e-10 1.68833e-10 1.67701e-10 1.71509e-10 1.70896e-10 1.70808e-10 1.71865e-10 1.72682e-10 1.72682e-10 1.68622e-10 1.68604e-10 1.72682e-10 1.72682e-10 1.72682e-10 1.72682e-10 1.72682e-10 1.72682e-10 1.72688e-10 1.72617e-10 1.72682e-10 1.72682e-10 1.72682e-10 1.72682e-10 1.72682e-10 1.73114e-10 1.73114e-10 1.72682e-10 1.72682e-10 1.72682e-10 1.72684e-10 1.72735e-10 1.72735e-10 1.72684e-10 1.72682e-10 1.72682e-10 1.72682e-10 1.72682e-10 1.73178e-10 1.72682e-10 1.72682e-10 1.72682e-10 1.72682e-10 1.72682e-10 1.72682e-10 1.72682e-10 1.72683e-10 1.72714e-10 1.72686e-10 1.73019e-10 1.72762e-10 
        </DataArray>
        <DataArray type="Float32" Name="F0_Density_SG_co2liq_mod.xml" format="ascii">
5897.15 5897.14 5897.54 5897.25 6390.49 6382.88 5906.82 5906.95 6362.15 6381.73 6330.67 6330.7 6513.14 6496.06 5897.13 5897.13 6131.14 6198.61 5967.14 6003 6008.08 5945.42 5897.13 5897.13 6142.81 6143.65 5897.13 5897.13 5897.13 5897.13 5897.13 5897.13 5896.77 5901.23 5897.13 5897.13 5897.13 5897.13 5897.13 5868.46 5868.46 5897.13 5897.13 5897.13 5896.99 5893.73 5893.72 5896.98 5897.13 5897.13 5897.13 5897.13 5860.64 5897.13 5897.13 5897.13 5897.13 5897.13 5897.13 5897.12 5897.06 5895.07 5896.85 5874.98 5891.99 
        </DataArray>
        <DataArray type="Float32" Name="F0_Temperature_SG_co2liq_mod.xml" format="ascii">
41.7808 41.7807 41.782 41.781 42.374 42.3703 41.81 41.8104 42.3596 42.3697 42.3423 42.3423 42.4258 42.4195 41.7807 41.7807 42.1888 42.2511 41.9552 42.021 42.0294 41.9089 41.7807 41.7807 42.2006 42.2014 41.7807 41.7807 41.7807 41.7807 41.7807 41.7807 41.7796 41.7933 41.7807 41.7807 41.7807 41.7807 41.7807 41.678 41.678 41.7807 41.7807 41.7807 41.7802 41.7698 41.7698 41.7802 41.7807 41.7807 41.7807 41.7807 41.6444 41.7807 41.7807 41.7807 41.7807 41.7807 41.7807 41.7807 41.7805 41.7741 41.7798 41.7039 41.7642 
        </DataArray>
        <DataArray type="Float32" Name="F0_Mass fraction_SG_co2liq_mod.xml" format="ascii">
9.59336e-09 9.59415e-09 9.57726e-09 9.58953e-09 2.89923e-09 2.92245e-09 9.21315e-09 9.20825e-09 3.07242e-09 3.01437e-09 2.87441e-09 2.87432e-09 2.40446e-09 2.44277e-09 9.5944e-09 9.5944e-09 4.97355e-09 4.4121e-09 7.49568e-09 6.77165e-09 6.68368e-09 8.05141e-09 9.5944e-09 9.5944e-09 4.87729e-09 4.87277e-09 9.5944e-09 9.5944e-09 9.5944e-09 9.5944e-09 9.5944e-09 9.5944e-09 9.60938e-09 9.42786e-09 9.5944e-09 9.5944e-09 9.5944e-09 9.5944e-09 9.5944e-09 1.10539e-08 1.10538e-08 9.5944e-09 9.5944e-09 9.59451e-09 9.60048e-09 9.74045e-09 9.74063e-09 9.60057e-09 9.59451e-09 9.5944e-09 9.5944e-09 9.5944e-09 1.17723e-08 9.5944e-09 9.5944e-09 9.5944e-09 9.5944e-09 9.59444e-09 9.5944e-09 9.59467e-09 9.59722e-09 9.68228e-09 9.60626e-09 1.06681e-08 9.818e-09 
        </DataArray>
        <DataArray type="Float32" Name="F1_Alpha_SG_co2gas_mod.xml" format="ascii">
1 1 1 1 1 1 1 1 1 1 1 1 1 1 1 1 1 1 1 1 1 1 1 1 1 1 1 1 1 1 1 1 1 1 1 1 1 1 1 1 1 1 1 1 1 1 1 1 1 1 1 1 1 1 1 1 1 1 1 1 1 1 1 1 1 
        </DataArray>
        <DataArray type="Float32" Name="F1_Density_SG_co2gas_mod.xml" format="ascii">
106.149 106.141 106.331 106.193 365.865 362.8 110.612 110.672 344.086 351.056 369.459 369.471 446.503 439.045 106.138 106.138 208.129 235.605 136.534 151.498 153.542 126.911 106.138 106.138 212.374 212.578 106.138 106.138 106.138 106.138 106.138 106.138 105.969 108.047 106.138 106.138 106.138 106.138 106.138 91.9054 91.9063 106.138 106.138 106.137 106.069 104.518 104.516 106.068 106.136 106.138 106.138 106.138 86.2137 106.138 106.138 106.138 106.138 106.137 106.138 106.135 106.106 105.157 106.004 95.2825 103.678 
        </DataArray>
        <DataArray type="Float32" Name="F1_Temperature_SG_co2gas_mod.xml" format="ascii">
466.388 466.386 466.437 466.4 394.183 393.806 467.817 467.83 404.552 406.401 361.611 361.612 371.097 370.632 466.385 466.385 466.818 465.623 475.297 477.016 477.34 475.073 466.385 466.385 467.801 468.098 466.385 466.385 466.385 466.385 466.385 466.385 466.341 466.978 466.385 466.385 466.385 466.385 466.385 462.581 462.582 466.385 466.385 466.385 466.367 465.958 465.957 466.367 466.385 466.385 466.385 466.385 469.576 466.385 466.385 466.385 466.385 466.385 466.385 466.385 466.377 466.126 466.35 463.454 465.771 
        </DataArray>
        <DataArray type="Float32" Name="F1_Mass fraction_SG_co2gas_mod.xml" format="ascii">
1 1 1 1 1 1 1 1 1 1 1 1 1 1 1 1 1 1 1 1 1 1 1 1 1 1 1 1 1 1 1 1 1 1 1 1 1 1 1 1 1 1 1 1 1 1 1 1 1 1 1 1 1 1 1 1 1 1 1 1 1 1 1 1 1 
        </DataArray>
        <DataArray type="Float32" Name="Density_Mixture" format="ascii">
106.149 106.141 106.331 106.193 365.865 362.8 110.612 110.672 344.086 351.056 369.459 369.471 446.503 439.045 106.138 106.138 208.129 235.605 136.534 151.498 153.542 126.911 106.138 106.138 212.374 212.578 106.138 106.138 106.138 106.138 106.138 106.138 105.969 108.047 106.138 106.138 106.138 106.138 106.138 91.9054 91.9063 106.138 106.138 106.137 106.069 104.518 104.516 106.068 106.136 106.138 106.138 106.138 86.2137 106.138 106.138 106.138 106.138 106.137 106.138 106.135 106.106 105.157 106.004 95.2825 103.678 
        </DataArray>
        <DataArray type="Float32" Name="Pressure_Mixture" format="ascii">
6.27269e+06 6.27206e+06 6.28569e+06 6.27579e+06 1.99679e+07 1.97734e+07 6.59649e+06 6.60076e+06 1.92424e+07 1.9744e+07 1.84326e+07 1.84333e+07 2.30736e+07 2.26439e+07 6.27186e+06 6.27186e+06 1.31631e+07 1.4977e+07 8.49772e+06 9.56379e+06 9.71199e+06 7.8322e+06 6.27186e+06 6.27186e+06 1.34799e+07 1.35027e+07 6.27186e+06 6.27186e+06 6.27186e+06 6.27186e+06 6.27186e+06 6.27186e+06 6.25983e+06 6.40986e+06 6.27186e+06 6.27186e+06 6.27186e+06 6.27186e+06 6.27186e+06 5.26148e+06 5.26155e+06 6.27186e+06 6.27186e+06 6.27177e+06 6.26697e+06 6.15617e+06 6.15603e+06 6.26689e+06 6.27177e+06 6.27186e+06 6.27186e+06 6.27186e+06 4.96797e+06 6.27186e+06 6.27186e+06 6.27186e+06 6.27186e+06 6.27183e+06 6.27186e+06 6.27164e+06 6.26959e+06 6.2018e+06 6.26233e+06 5.4994e+06 6.09677e+06 
        </DataArray>
        <DataArray type="Float32" Name="Velocity_Mixture" NumberOfComponents="3" format="ascii">
0.0292026 0.00129545 0 0.00635344 0.000487576 0 0.385436 0.182664 0 0.161242 -0.443245 0 296.325 -0.326861 0 297.703 2.15781 0 11.4023 -2.5306 0 11.6422 2.44678 0 289.234 44.6263 0 286.502 -39.2849 0 339.049 0.191092 0 339.044 -0.194197 0 305.319 -41.7998 0 303.997 50.0683 0 0.000129605 0.000189688 0 -7.77289e-05 3.68e-05 0 185.648 -23.5573 0 180.669 58.7389 0 71.8056 -11.4195 0 106.315 -14.5878 0 104.712 12.2203 0 40.7998 6.21192 0 -6.29689e-05 -2.34104e-05 0 1.87143e-05 0 0 196.193 -23.5549 0 197.633 25.9321 0 0 0 0 0 0 0 0 0 0 0 0 0 0 0 0 0 0 0 -0.215293 -0.376786 0 4.59082 0.56384 0 0 0 0 0 0 0 0 0 0 0 0 0 0 0 0 10.8874 -1.21933 0 10.8873 1.22072 0 0 0 0 0 -1.61397e-06 0 0.000505514 -0.000677855 0 0.0315113 -0.0265205 0 0.847093 -0.370101 0 0.899506 0.353496 0 0.0344325 0.0257863 0 0.000576511 0.000679723 0 0 4.56278e-06 0 0 0 0 0 0 0 49.2148 0.00147757 0 0 0 0 0 0 0 0 0 0 0 0 0 0.000283479 4.642e-05 0 0.000111247 0 0 0.0126052 -0.000430287 0 0.0237578 0.00348136 0 0.89269 0.0966078 0 0.588723 -0.017403 0 14.9634 -0.0030187 0 11.2858 -0.282481 0 
        </DataArray>
        <DataArray type="Float32" Name="gradRho" format="ascii">
0.0542832 0.0154801 1.06352 1.30595 51.105 51.2778 17.313 16.546 58.5695 71.7689 2.49726 4.63216 22.534 22.4188 0.000761809 0.00321648 61.2 57.7354 30.3414 35.8471 34.7639 37.1246 1.58038e-05 2.52432e-06 70.0201 71.7287 1.97277e-09 6.64957e-07 6.6055e-07 5.27258e-06 7.79991e-06 1.73529e-07 7.30472 10.1701 0 0 0 2.50909e-11 2.50909e-11 0.884562 0.884902 2.89909e-08 5.46337e-06 0.000325714 0.0103474 0.118503 0.118071 0.0099527 0.000304371 4.6507e-06 2.45576e-08 0 0.82066 3.30425e-09 7.28439e-09 1.05188e-06 1.84952e-06 0.00022347 0.000145816 0.010227 0.0136369 0.358021 0.302689 3.26302 3.01912 
        </DataArray>
      </CellData>
    </Piece>
  </UnstructuredGrid>
</VTKFile>
