<?xml version="1.0"?>
<VTKFile type="UnstructuredGrid" version="0.1" byte_order="LittleEndian">
  <UnstructuredGrid>
    <Piece NumberOfPoints="50" NumberOfCells="65">
      <Points>
        <DataArray type="Float32" NumberOfComponents="3" format="ascii">
          0 5 0 0 -5 0 15 0.2 0 15 -0.2 0 35 0.2 0 35 -0.2 0 2.14286 4.31429 0 4.28571 3.62857 0 6.42857 2.94286 0 8.57143 2.25714 0 10.7143 1.57143 0 12.8571 0.885714 0 17.8571 0.2 0 20.7143 0.2 0 23.5714 0.2 0 26.4286 0.2 0 29.2857 0.2 0 32.1429 0.2 0 32.1429 -0.2 0 29.2857 -0.2 0 26.4286 -0.2 0 23.5714 -0.2 0 20.7143 -0.2 0 17.8571 -0.2 0 12.8571 -0.885714 0 10.7143 -1.57143 0 8.57143 -2.25714 0 6.42857 -2.94286 0 4.28571 -3.62857 0 2.14286 -4.31429 0 0 -2.5 0 0 -6.16307e-12 0 0 2.5 0 3.95974 -5.7158e-13 0 13.9286 -3.66374e-15 0 6.61813 2.81487e-12 0 2.86365 2.0434 0 2.86365 -2.0434 0 9.43036 1.987e-12 0 11.3926 2.79508e-14 0 4.83116 1.72297 0 4.83116 -1.72297 0 1.90629 -3.21031e-12 0 33.5714 0 0 16.4286 -1.80625e-18 0 25 6.93889e-18 0 19.2857 -6.93889e-18 0 30.7143 0 0 22.1429 0 0 27.8571 0 0 
        </DataArray>
      </Points>
      <Cells>
        <DataArray type="Int32" Name="connectivity" format="ascii">
          8 9 35 26 27 35 8 35 40 27 41 35 30 42 37 32 36 42 33 40 35 33 35 41 29 30 37 6 36 32 30 31 42 31 32 42 0 6 32 30 29 1 26 35 38 9 38 35 6 7 36 28 29 37 7 40 36 33 41 37 33 36 40 28 37 41 9 10 38 25 26 38 33 42 36 33 37 42 11 34 24 24 25 39 10 11 39 25 38 39 10 39 38 11 24 39 27 28 41 7 8 40 2 34 11 3 24 34 2 3 34 2 44 12 3 23 44 4 17 43 5 43 18 12 46 13 13 48 14 14 45 15 15 49 16 16 47 17 18 47 19 19 49 20 20 45 21 21 48 22 22 46 23 2 3 44 4 43 5 12 44 23 12 23 46 13 46 22 13 22 48 14 21 45 14 48 21 15 45 20 15 20 49 16 19 47 16 49 19 17 18 43 17 47 18 
        </DataArray>
        <DataArray type="Int32" Name="offsets" format="ascii">
          3 6 9 12 15 18 21 24 27 30 33 36 39 42 45 48 51 54 57 60 63 66 69 72 75 78 81 84 87 90 93 96 99 102 105 108 111 114 117 120 123 126 129 132 135 138 141 144 147 150 153 156 159 162 165 168 171 174 177 180 183 186 189 192 195 
        </DataArray>
        <DataArray type="UInt8" Name="types" format="ascii">
          5 5 5 5 5 5 5 5 5 5 5 5 5 5 5 5 5 5 5 5 5 5 5 5 5 5 5 5 5 5 5 5 5 5 5 5 5 5 5 5 5 5 5 5 5 5 5 5 5 5 5 5 5 5 5 5 5 5 5 5 5 5 5 5 5 
        </DataArray>
      </Cells>
      <CellData>
        <DataArray type="Float32" Name="F0_Alpha_SG_co2liq_mod.xml" format="ascii">
1.72616e-10 1.72639e-10 1.7228e-10 1.72459e-10 1.653e-10 1.6527e-10 1.70394e-10 1.70243e-10 1.64478e-10 1.64289e-10 1.67738e-10 1.67739e-10 1.63094e-10 1.63392e-10 1.72682e-10 1.72675e-10 1.64305e-10 1.63592e-10 1.661e-10 1.66381e-10 1.66464e-10 1.65997e-10 1.72682e-10 1.72682e-10 1.65768e-10 1.65794e-10 1.72682e-10 1.72682e-10 1.72682e-10 1.72682e-10 1.72682e-10 1.72682e-10 1.70818e-10 1.70701e-10 1.72682e-10 1.72682e-10 1.72682e-10 1.72682e-10 1.72682e-10 1.7325e-10 1.73249e-10 1.72682e-10 1.72682e-10 1.72683e-10 1.72696e-10 1.72823e-10 1.72822e-10 1.72696e-10 1.72683e-10 1.72682e-10 1.72682e-10 1.72682e-10 1.73295e-10 1.72682e-10 1.72682e-10 1.72682e-10 1.72682e-10 1.72682e-10 1.72682e-10 1.72683e-10 1.72691e-10 1.72783e-10 1.72704e-10 1.73163e-10 1.72864e-10 
        </DataArray>
        <DataArray type="Float32" Name="F0_Density_SG_co2liq_mod.xml" format="ascii">
5901.27 5899.86 5921.86 5910.92 6467.65 6469.47 6031.32 6039.75 6518.47 6530.01 6344.51 6344.49 6647.56 6627.74 5897.1 5897.58 6446.05 6490.55 6281.08 6288.67 6283.93 6288.22 5897.12 5897.12 6372.87 6371.23 5897.13 5897.13 5897.13 5897.13 5897.12 5897.13 6004.89 6010.71 5897.13 5897.13 5897.13 5897.13 5897.13 5858.71 5858.71 5897.13 5897.13 5897.08 5896.22 5888.08 5888.11 5896.21 5897.08 5897.13 5897.13 5897.13 5851.65 5897.13 5897.13 5897.13 5897.13 5897.11 5897.13 5897.05 5896.58 5890.67 5895.73 5865.03 5885.31 
        </DataArray>
        <DataArray type="Float32" Name="F0_Temperature_SG_co2liq_mod.xml" format="ascii">
41.7935 41.7892 41.8516 41.8218 42.4084 42.4091 42.0657 42.078 42.4277 42.4317 42.3501 42.3501 42.467 42.4618 41.7806 41.7821 42.3994 42.4174 42.3119 42.3168 42.3138 42.3166 41.7807 41.7807 42.3652 42.3643 41.7807 41.7807 41.7807 41.7807 41.7806 41.7807 42.0241 42.0337 41.7807 41.7807 41.7807 41.7807 41.7807 41.6356 41.6357 41.7807 41.7807 41.7805 41.7778 41.7511 41.7512 41.7778 41.7805 41.7807 41.7807 41.7807 41.6017 41.7807 41.7807 41.7807 41.7807 41.7806 41.7807 41.7804 41.7789 41.7598 41.7763 41.6636 41.7416 
        </DataArray>
        <DataArray type="Float32" Name="F0_Mass fraction_SG_co2liq_mod.xml" format="ascii">
9.42475e-09 9.48158e-09 8.69288e-09 9.06542e-09 2.55746e-09 2.55331e-09 6.32206e-09 6.20157e-09 2.44428e-09 2.42068e-09 2.77978e-09 2.77987e-09 2.10066e-09 2.13381e-09 9.59569e-09 9.57571e-09 2.94353e-09 2.81065e-09 4.00332e-09 3.75865e-09 3.78124e-09 3.95386e-09 9.59461e-09 9.59468e-09 3.10381e-09 3.11009e-09 9.5944e-09 9.5944e-09 9.59444e-09 9.5944e-09 9.59489e-09 9.5944e-09 6.80626e-09 6.72689e-09 9.5944e-09 9.5944e-09 9.5944e-09 9.5944e-09 9.5944e-09 1.17088e-08 1.17085e-08 9.5944e-09 9.59445e-09 9.59631e-09 9.63309e-09 9.99678e-09 9.99527e-09 9.6332e-09 9.59634e-09 9.59445e-09 9.5944e-09 9.5944e-09 1.24994e-08 9.5944e-09 9.5944e-09 9.5944e-09 9.59442e-09 9.59537e-09 9.59451e-09 9.59788e-09 9.61777e-09 9.87697e-09 9.65365e-09 1.12703e-08 1.01313e-08 
        </DataArray>
        <DataArray type="Float32" Name="F1_Alpha_SG_co2gas_mod.xml" format="ascii">
1 1 1 1 1 1 1 1 1 1 1 1 1 1 1 1 1 1 1 1 1 1 1 1 1 1 1 1 1 1 1 1 1 1 1 1 1 1 1 1 1 1 1 1 1 1 1 1 1 1 1 1 1 1 1 1 1 1 1 1 1 1 1 1 1 
        </DataArray>
        <DataArray type="Float32" Name="F1_Density_SG_co2gas_mod.xml" format="ascii">
108.083 107.424 117.363 112.448 418.032 418.753 162.558 165.801 438.634 443.186 382.842 382.829 516.111 507.507 106.123 106.349 359.813 377.777 260.605 278.376 276.642 264.001 106.135 106.135 340.362 339.64 106.138 106.138 106.137 106.138 106.132 106.138 150.706 152.528 106.138 106.138 106.138 106.138 106.138 86.6886 86.6908 106.138 106.137 106.116 105.704 101.792 101.808 105.703 106.116 106.137 106.138 106.138 81.1289 106.138 106.138 106.138 106.138 106.127 106.136 106.099 105.875 103.048 105.475 90.1133 100.417 
        </DataArray>
        <DataArray type="Float32" Name="F1_Temperature_SG_co2gas_mod.xml" format="ascii">
466.922 466.731 469.833 468.479 377.411 377.519 479.413 480.075 379.865 380.48 355.412 355.411 365.993 365.495 466.382 466.441 427.974 428.199 478.539 452.898 452.657 477.256 466.385 466.384 414.562 414.588 466.385 466.385 466.385 466.385 466.384 466.385 482.051 483.988 466.385 466.385 466.385 466.385 466.385 461.114 461.115 466.385 466.385 466.38 466.271 465.234 465.236 466.271 466.38 466.385 466.385 466.385 469.141 466.385 466.385 466.385 466.385 466.382 466.385 466.375 466.316 465.565 466.213 461.999 464.969 
        </DataArray>
        <DataArray type="Float32" Name="F1_Mass fraction_SG_co2gas_mod.xml" format="ascii">
1 1 1 1 1 1 1 1 1 1 1 1 1 1 1 1 1 1 1 1 1 1 1 1 1 1 1 1 1 1 1 1 1 1 1 1 1 1 1 1 1 1 1 1 1 1 1 1 1 1 1 1 1 1 1 1 1 1 1 1 1 1 1 1 1 
        </DataArray>
        <DataArray type="Float32" Name="Density_Mixture" format="ascii">
108.083 107.424 117.363 112.448 418.032 418.753 162.558 165.801 438.634 443.186 382.842 382.829 516.111 507.507 106.123 106.349 359.813 377.777 260.605 278.376 276.642 264.001 106.135 106.135 340.362 339.64 106.138 106.138 106.137 106.138 106.132 106.138 150.706 152.528 106.138 106.138 106.138 106.138 106.138 86.6886 86.6908 106.138 106.137 106.116 105.704 101.792 101.808 105.703 106.116 106.137 106.138 106.138 81.1289 106.138 106.138 106.138 106.138 106.127 106.136 106.099 105.875 103.048 105.475 90.1133 100.417 
        </DataArray>
        <DataArray type="Float32" Name="Pressure_Mixture" format="ascii">
6.41145e+06 6.36394e+06 7.08736e+06 6.73149e+06 2.19275e+07 2.19734e+07 1.0383e+07 1.06237e+07 2.32075e+07 2.34969e+07 1.87892e+07 1.87885e+07 2.64279e+07 2.59361e+07 6.27082e+06 6.28694e+06 2.1381e+07 2.25051e+07 1.71471e+07 1.73446e+07 1.72214e+07 1.7333e+07 6.27169e+06 6.27163e+06 1.95172e+07 1.94752e+07 6.27186e+06 6.27186e+06 6.27182e+06 6.27186e+06 6.27146e+06 6.27186e+06 9.61889e+06 9.78859e+06 6.27186e+06 6.27186e+06 6.27186e+06 6.27186e+06 6.27186e+06 4.89414e+06 4.8943e+06 6.27186e+06 6.27182e+06 6.27032e+06 6.24085e+06 5.96183e+06 5.96291e+06 6.24076e+06 6.2703e+06 6.27181e+06 6.27186e+06 6.27186e+06 4.6176e+06 6.27186e+06 6.27186e+06 6.27186e+06 6.27184e+06 6.27107e+06 6.27177e+06 6.26906e+06 6.2531e+06 6.05128e+06 6.22451e+06 5.13402e+06 5.8655e+06 
        </DataArray>
        <DataArray type="Float32" Name="Velocity_Mixture" NumberOfComponents="3" format="ascii">
5.22055 -0.0994431 0 2.43766 0.583716 0 24.377 -1.76838 0 15.058 -7.84402 0 318.988 9.29054 0 319.991 -11.1479 0 127.416 -7.11485 0 133.076 6.79723 0 308.93 43.7875 0 308.026 -43.0526 0 343.022 0.111177 0 343.024 -0.109587 0 295.017 -43.5648 0 296.456 46.0953 0 -0.0391812 -0.12208 0 0.461646 -0.276218 0 275.891 -54.777 0 277.007 75.2261 0 234.585 -38.0475 0 245.146 6.14152 0 246.254 -2.146 0 220.584 63.7493 0 -0.0330242 -0.0264908 0 -0.00366844 -0.0018254 0 280.118 -19.2764 0 280.607 21.1578 0 0 0 0 1.74192e-05 0 0 -0.00116185 -0.000356221 0 0.000693472 0.00229915 0 -0.0110487 0.00883792 0 -1.34442e-05 2.92242e-05 0 77.3742 27.2898 0 107.32 -7.76174 0 0 0 0 0 0 0 0 0 0 0 0 0 0 0 0 19.0015 -0.933435 0 19.0032 0.938283 0 0 0 0 0.000238758 -0.000260265 0 0.0103797 -0.00729028 0 0.231537 -0.100344 0 2.73672 -0.575127 0 2.79197 0.552533 0 0.243947 0.0963767 0 0.0112094 0.00708306 0 0.000269836 0.000256824 0 0 0 0 0 0 0 60.4886 0.00555226 0 0 0 0 0 0 0 6.94064e-05 0 0 0.000159927 1.34904e-05 0 0.00897668 0.00109633 0 0.00534141 -0.000162865 0 0.174231 -0.00480271 0 0.252566 0.0218559 0 3.86039 0.172969 0 3.00282 -0.0676528 0 31.14 -0.00649547 0 24.4417 -0.262433 0 
        </DataArray>
        <DataArray type="Float32" Name="gradRho" format="ascii">
2.95559 1.65953 14.3683 14.6055 23.243 24.126 52.8392 54.012 40.1092 48.9815 24.4413 24.9481 17.2169 16.2601 0.317609 0.57791 47.7065 43.7814 70.9493 57.8249 59.1687 77.1665 0.0729173 0.00454738 47.252 46.4338 7.87004e-06 1.12507e-05 0.00194556 0.0022408 0.00218645 0.000219736 44.5863 42.3432 1.21248e-07 1.33887e-07 1.81031e-08 2.95108e-08 2.4785e-08 0.849476 0.850205 3.36195e-06 0.00011252 0.00273408 0.0324811 0.192106 0.193548 0.0321797 0.00264369 0.000107655 2.87848e-06 1.01702e-08 0.801729 9.52405e-07 1.43594e-06 8.02842e-05 0.000111911 0.00443016 0.00346381 0.079838 0.0946897 0.969302 0.87123 3.9354 3.73923 
        </DataArray>
      </CellData>
    </Piece>
  </UnstructuredGrid>
</VTKFile>
