<?xml version="1.0"?>
<VTKFile type="UnstructuredGrid" version="0.1" byte_order="LittleEndian">
  <UnstructuredGrid>
    <Piece NumberOfPoints="50" NumberOfCells="65">
      <Points>
        <DataArray type="Float32" NumberOfComponents="3" format="ascii">
          0 5 0 0 -5 0 15 0.2 0 15 -0.2 0 35 0.2 0 35 -0.2 0 2.14286 4.31429 0 4.28571 3.62857 0 6.42857 2.94286 0 8.57143 2.25714 0 10.7143 1.57143 0 12.8571 0.885714 0 17.8571 0.2 0 20.7143 0.2 0 23.5714 0.2 0 26.4286 0.2 0 29.2857 0.2 0 32.1429 0.2 0 32.1429 -0.2 0 29.2857 -0.2 0 26.4286 -0.2 0 23.5714 -0.2 0 20.7143 -0.2 0 17.8571 -0.2 0 12.8571 -0.885714 0 10.7143 -1.57143 0 8.57143 -2.25714 0 6.42857 -2.94286 0 4.28571 -3.62857 0 2.14286 -4.31429 0 0 -2.5 0 0 -6.16307e-12 0 0 2.5 0 3.95974 -5.7158e-13 0 13.9286 -3.66374e-15 0 6.61813 2.81487e-12 0 2.86365 2.0434 0 2.86365 -2.0434 0 9.43036 1.987e-12 0 11.3926 2.79508e-14 0 4.83116 1.72297 0 4.83116 -1.72297 0 1.90629 -3.21031e-12 0 33.5714 0 0 16.4286 -1.80625e-18 0 25 6.93889e-18 0 19.2857 -6.93889e-18 0 30.7143 0 0 22.1429 0 0 27.8571 0 0 
        </DataArray>
      </Points>
      <Cells>
        <DataArray type="Int32" Name="connectivity" format="ascii">
          8 9 35 26 27 35 8 35 40 27 41 35 30 42 37 32 36 42 33 40 35 33 35 41 29 30 37 6 36 32 30 31 42 31 32 42 0 6 32 30 29 1 26 35 38 9 38 35 6 7 36 28 29 37 7 40 36 33 41 37 33 36 40 28 37 41 9 10 38 25 26 38 33 42 36 33 37 42 11 34 24 24 25 39 10 11 39 25 38 39 10 39 38 11 24 39 27 28 41 7 8 40 2 34 11 3 24 34 2 3 34 2 44 12 3 23 44 4 17 43 5 43 18 12 46 13 13 48 14 14 45 15 15 49 16 16 47 17 18 47 19 19 49 20 20 45 21 21 48 22 22 46 23 2 3 44 4 43 5 12 44 23 12 23 46 13 46 22 13 22 48 14 21 45 14 48 21 15 45 20 15 20 49 16 19 47 16 49 19 17 18 43 17 47 18 
        </DataArray>
        <DataArray type="Int32" Name="offsets" format="ascii">
          3 6 9 12 15 18 21 24 27 30 33 36 39 42 45 48 51 54 57 60 63 66 69 72 75 78 81 84 87 90 93 96 99 102 105 108 111 114 117 120 123 126 129 132 135 138 141 144 147 150 153 156 159 162 165 168 171 174 177 180 183 186 189 192 195 
        </DataArray>
        <DataArray type="UInt8" Name="types" format="ascii">
          5 5 5 5 5 5 5 5 5 5 5 5 5 5 5 5 5 5 5 5 5 5 5 5 5 5 5 5 5 5 5 5 5 5 5 5 5 5 5 5 5 5 5 5 5 5 5 5 5 5 5 5 5 5 5 5 5 5 5 5 5 5 5 5 5 
        </DataArray>
      </Cells>
      <CellData>
        <DataArray type="Float32" Name="F0_Alpha_SG_co2liq_mod.xml" format="ascii">
1.72677e-10 1.72679e-10 1.72633e-10 1.72664e-10 1.65561e-10 1.65652e-10 1.72093e-10 1.72077e-10 1.65301e-10 1.65006e-10 1.67728e-10 1.67729e-10 1.64098e-10 1.64389e-10 1.72682e-10 1.72682e-10 1.66675e-10 1.65593e-10 1.69776e-10 1.69106e-10 1.69042e-10 1.7003e-10 1.72682e-10 1.72682e-10 1.67256e-10 1.67238e-10 1.72682e-10 1.72682e-10 1.72682e-10 1.72682e-10 1.72682e-10 1.72682e-10 1.7249e-10 1.72323e-10 1.72682e-10 1.72682e-10 1.72682e-10 1.72682e-10 1.72682e-10 1.73174e-10 1.73174e-10 1.72682e-10 1.72682e-10 1.72682e-10 1.72687e-10 1.72766e-10 1.72766e-10 1.72687e-10 1.72682e-10 1.72682e-10 1.72682e-10 1.72682e-10 1.73229e-10 1.72682e-10 1.72682e-10 1.72682e-10 1.72682e-10 1.72682e-10 1.72682e-10 1.72682e-10 1.72685e-10 1.72737e-10 1.72691e-10 1.73082e-10 1.72799e-10 
        </DataArray>
        <DataArray type="Float32" Name="F0_Density_SG_co2liq_mod.xml" format="ascii">
5897.48 5897.31 5900.21 5898.27 6432.66 6426.74 5932.79 5933.73 6437.85 6456.68 6338.9 6338.86 6570.83 6551.8 5897.13 5897.15 6269.67 6336.57 6064.37 6110.08 6113.73 6050.56 5897.13 5897.13 6247.32 6248.13 5897.13 5897.13 5897.13 5897.13 5897.13 5897.13 5908.83 5918.92 5897.13 5897.13 5897.13 5897.13 5897.13 5864.17 5864.17 5897.13 5897.13 5897.12 5896.79 5891.75 5891.76 5896.79 5897.12 5897.13 5897.13 5897.13 5856.69 5897.13 5897.13 5897.13 5897.13 5897.13 5897.13 5897.11 5896.95 5893.58 5896.54 5870.67 5889.59 
        </DataArray>
        <DataArray type="Float32" Name="F0_Temperature_SG_co2liq_mod.xml" format="ascii">
41.7818 41.7812 41.7902 41.7842 42.3936 42.391 41.8792 41.8815 42.3959 42.4039 42.347 42.3469 42.4452 42.4391 41.7807 41.7807 42.3043 42.3457 42.1117 42.1664 42.1704 42.0932 41.7807 41.7807 42.2887 42.2893 41.7807 41.7807 41.7807 41.7807 41.7807 41.7807 41.8158 41.8438 41.7807 41.7807 41.7807 41.7807 41.7807 41.6599 41.6599 41.7807 41.7807 41.7806 41.7796 41.7634 41.7634 41.7796 41.7806 41.7807 41.7807 41.7807 41.6262 41.7807 41.7807 41.7807 41.7807 41.7807 41.7807 41.7806 41.7801 41.7693 41.7788 41.6869 41.7562 
        </DataArray>
        <DataArray type="Float32" Name="F0_Mass fraction_SG_co2liq_mod.xml" format="ascii">
9.57986e-09 9.5868e-09 9.46734e-09 9.54712e-09 2.71271e-09 2.72973e-09 8.37016e-09 8.34323e-09 2.74089e-09 2.68837e-09 2.82119e-09 2.82132e-09 2.2609e-09 2.29817e-09 9.59458e-09 9.59345e-09 3.87072e-09 3.52517e-09 5.90825e-09 5.25503e-09 5.21855e-09 6.07856e-09 9.59441e-09 9.59441e-09 3.89212e-09 3.88989e-09 9.5944e-09 9.5944e-09 9.5944e-09 9.5944e-09 9.59441e-09 9.5944e-09 9.14898e-09 8.80269e-09 9.5944e-09 9.5944e-09 9.5944e-09 9.5944e-09 9.5944e-09 1.13292e-08 1.1329e-08 9.5944e-09 9.59441e-09 9.59482e-09 9.6088e-09 9.82824e-09 9.82763e-09 9.60892e-09 9.59483e-09 9.59441e-09 9.5944e-09 9.5944e-09 1.20798e-08 9.5944e-09 9.5944e-09 9.5944e-09 9.5944e-09 9.59458e-09 9.59442e-09 9.59529e-09 9.60203e-09 9.74695e-09 9.61936e-09 1.09181e-08 9.92727e-09 
        </DataArray>
        <DataArray type="Float32" Name="F1_Alpha_SG_co2gas_mod.xml" format="ascii">
1 1 1 1 1 1 1 1 1 1 1 1 1 1 1 1 1 1 1 1 1 1 1 1 1 1 1 1 1 1 1 1 1 1 1 1 1 1 1 1 1 1 1 1 1 1 1 1 1 1 1 1 1 1 1 1 1 1 1 1 1 1 1 1 1 
        </DataArray>
        <DataArray type="Float32" Name="F1_Density_SG_co2gas_mod.xml" format="ascii">
106.302 106.223 107.588 106.673 392.596 390.004 121.98 122.382 388.261 396.297 376.866 376.847 476.916 468.652 106.136 106.148 269.975 297.657 174.262 196.621 198.039 169.247 106.138 106.138 268.466 268.625 106.138 106.138 106.138 106.138 106.138 106.138 111.402 115.87 106.138 106.138 106.138 106.138 106.138 89.6373 89.639 106.138 106.138 106.133 105.976 103.568 103.575 105.975 106.133 106.138 106.138 106.138 83.9875 106.138 106.138 106.138 106.138 106.136 106.138 106.128 106.052 104.447 105.857 93.066 102.517 
        </DataArray>
        <DataArray type="Float32" Name="F1_Temperature_SG_co2gas_mod.xml" format="ascii">
466.429 466.408 466.783 466.536 386.254 386.158 471.818 471.958 392.911 393.269 358.395 358.394 368.387 367.862 466.385 466.388 454.305 452.371 484.381 473.9 473.999 482.836 466.385 466.385 441.781 442.07 466.385 466.385 466.385 466.385 466.385 466.385 468.609 470.229 466.385 466.385 466.385 466.385 466.385 461.947 461.947 466.385 466.385 466.384 466.343 465.707 465.708 466.342 466.384 466.385 466.385 466.385 469.509 466.385 466.385 466.385 466.385 466.385 466.385 466.383 466.363 465.938 466.312 462.835 465.487 
        </DataArray>
        <DataArray type="Float32" Name="F1_Mass fraction_SG_co2gas_mod.xml" format="ascii">
1 1 1 1 1 1 1 1 1 1 1 1 1 1 1 1 1 1 1 1 1 1 1 1 1 1 1 1 1 1 1 1 1 1 1 1 1 1 1 1 1 1 1 1 1 1 1 1 1 1 1 1 1 1 1 1 1 1 1 1 1 1 1 1 1 
        </DataArray>
        <DataArray type="Float32" Name="Density_Mixture" format="ascii">
106.302 106.223 107.588 106.673 392.596 390.004 121.98 122.382 388.261 396.297 376.866 376.847 476.916 468.652 106.136 106.148 269.975 297.657 174.262 196.621 198.039 169.247 106.138 106.138 268.466 268.625 106.138 106.138 106.138 106.138 106.138 106.138 111.402 115.87 106.138 106.138 106.138 106.138 106.138 89.6373 89.639 106.138 106.138 106.133 105.976 103.568 103.575 105.975 106.133 106.138 106.138 106.138 83.9875 106.138 106.138 106.138 106.138 106.136 106.138 106.128 106.052 104.447 105.857 93.066 102.517 
        </DataArray>
        <DataArray type="Float32" Name="Pressure_Mixture" format="ascii">
6.28359e+06 6.27798e+06 6.37585e+06 6.31027e+06 2.10414e+07 2.08912e+07 7.43607e+06 7.46596e+06 2.1173e+07 2.16501e+07 1.86446e+07 1.86437e+07 2.45187e+07 2.40429e+07 6.27171e+06 6.27262e+06 1.68494e+07 1.85846e+07 1.13196e+07 1.25877e+07 1.26876e+07 1.09305e+07 6.27185e+06 6.27185e+06 1.6264e+07 1.62854e+07 6.27186e+06 6.27186e+06 6.27186e+06 6.27186e+06 6.27185e+06 6.27186e+06 6.6627e+06 6.9926e+06 6.27186e+06 6.27186e+06 6.27186e+06 6.27186e+06 6.27186e+06 5.10154e+06 5.10166e+06 6.27186e+06 6.27185e+06 6.27152e+06 6.26029e+06 6.08841e+06 6.08886e+06 6.26019e+06 6.27151e+06 6.27185e+06 6.27186e+06 6.27186e+06 4.81599e+06 6.27186e+06 6.27186e+06 6.27186e+06 6.27186e+06 6.27171e+06 6.27184e+06 6.27114e+06 6.26572e+06 6.1511e+06 6.25183e+06 5.34253e+06 6.01436e+06 
        </DataArray>
        <DataArray type="Float32" Name="Velocity_Mixture" NumberOfComponents="3" format="ascii">
0.426935 0.00392563 0 0.166004 0.0278622 0 2.9224 0.257806 0 1.39901 -2.17388 0 309.4 3.61173 0 310.901 -3.28471 0 40.9507 -5.34896 0 42.3542 4.98861 0 302.206 43.803 0 299.95 -40.8754 0 341.452 0.140852 0 341.45 -0.141772 0 302.057 -43.3813 0 302.385 47.9146 0 -0.00422044 -0.00623242 0 0.0219216 -0.0156387 0 236.421 -37.9245 0 232.761 69.3264 0 141.306 -19.5317 0 173.932 -10.138 0 172.093 9.1643 0 113.681 31.5939 0 -0.000984157 -0.000697389 0 -0.000273394 1.70137e-05 0 242.226 -22.2969 0 243.622 25.1724 0 0 0 0 0 0 0 -5.14713e-06 0 0 2.94429e-05 4.76021e-05 0 -0.000269798 0.000213741 0 0 0 0 9.35252 1.00839 0 25.5006 1.72565 0 0 0 0 0 0 0 0 0 0 0 0 0 0 0 0 13.8996 -1.10524 0 13.9 1.10785 0 0 0 0 4.19132e-06 -3.9925e-05 0 0.00207683 -0.0020857 0 0.0794677 -0.0501178 0 1.44421 -0.465115 0 1.50919 0.439675 0 0.0853008 0.0483896 0 0.00230153 0.00205433 0 1.02201e-05 4.14656e-05 0 0 0 0 0 0 0 54.3013 0.00287802 0 0 0 0 0 0 0 0 0 0 0 0 0 0.00143578 0.000222396 0 0.000714509 -1.79132e-05 0 0.042966 -0.00135237 0 0.0710545 0.00848714 0 1.75759 0.140735 0 1.26422 -0.033322 0 21.0556 -0.00538737 0 16.2961 -0.33565 0 
        </DataArray>
        <DataArray type="Float32" Name="gradRho" format="ascii">
0.395607 0.143748 3.79508 3.92483 37.3713 38.1823 31.9619 31.5492 50.008 63.6705 10.9264 9.1356 19.0335 18.9796 0.0213962 0.0475024 60.7537 56.2702 48.8965 49.8283 49.531 57.4349 0.0036793 0.000686297 63.9654 65.3071 5.16494e-08 4.42916e-06 4.98478e-05 5.91825e-05 8.45465e-05 2.62664e-06 20.8003 21.4326 2.21365e-10 2.21365e-10 0 2.11743e-09 1.75375e-09 0.869067 0.869634 2.28868e-07 2.14502e-05 0.000892112 0.0177612 0.146031 0.147074 0.0173462 0.000845366 1.82677e-05 1.91726e-07 3.86856e-10 0.814672 4.21245e-08 7.32245e-08 7.30645e-06 1.23597e-05 0.000902482 0.000647697 0.0270357 0.0339154 0.577743 0.504875 3.63735 3.40922 
        </DataArray>
      </CellData>
    </Piece>
  </UnstructuredGrid>
</VTKFile>
