<?xml version="1.0"?>
<VTKFile type="UnstructuredGrid" version="0.1" byte_order="LittleEndian">
  <UnstructuredGrid>
    <Piece NumberOfPoints="50" NumberOfCells="65">
      <Points>
        <DataArray type="Float32" NumberOfComponents="3" format="ascii">
          0 5 0 0 -5 0 15 0.2 0 15 -0.2 0 35 0.2 0 35 -0.2 0 2.14286 4.31429 0 4.28571 3.62857 0 6.42857 2.94286 0 8.57143 2.25714 0 10.7143 1.57143 0 12.8571 0.885714 0 17.8571 0.2 0 20.7143 0.2 0 23.5714 0.2 0 26.4286 0.2 0 29.2857 0.2 0 32.1429 0.2 0 32.1429 -0.2 0 29.2857 -0.2 0 26.4286 -0.2 0 23.5714 -0.2 0 20.7143 -0.2 0 17.8571 -0.2 0 12.8571 -0.885714 0 10.7143 -1.57143 0 8.57143 -2.25714 0 6.42857 -2.94286 0 4.28571 -3.62857 0 2.14286 -4.31429 0 0 -2.5 0 0 -6.16307e-12 0 0 2.5 0 3.95974 -5.7158e-13 0 13.9286 -3.66374e-15 0 6.61813 2.81487e-12 0 2.86365 2.0434 0 2.86365 -2.0434 0 9.43036 1.987e-12 0 11.3926 2.79508e-14 0 4.83116 1.72297 0 4.83116 -1.72297 0 1.90629 -3.21031e-12 0 33.5714 0 0 16.4286 -1.80625e-18 0 25 6.93889e-18 0 19.2857 -6.93889e-18 0 30.7143 0 0 22.1429 0 0 27.8571 0 0 
        </DataArray>
      </Points>
      <Cells>
        <DataArray type="Int32" Name="connectivity" format="ascii">
          8 9 35 26 27 35 8 35 40 27 41 35 30 42 37 32 36 42 33 40 35 33 35 41 29 30 37 6 36 32 30 31 42 31 32 42 0 6 32 30 29 1 26 35 38 9 38 35 6 7 36 28 29 37 7 40 36 33 41 37 33 36 40 28 37 41 9 10 38 25 26 38 33 42 36 33 37 42 11 34 24 24 25 39 10 11 39 25 38 39 10 39 38 11 24 39 27 28 41 7 8 40 2 34 11 3 24 34 2 3 34 2 44 12 3 23 44 4 17 43 5 43 18 12 46 13 13 48 14 14 45 15 15 49 16 16 47 17 18 47 19 19 49 20 20 45 21 21 48 22 22 46 23 2 3 44 4 43 5 12 44 23 12 23 46 13 46 22 13 22 48 14 21 45 14 48 21 15 45 20 15 20 49 16 19 47 16 49 19 17 18 43 17 47 18 
        </DataArray>
        <DataArray type="Int32" Name="offsets" format="ascii">
          3 6 9 12 15 18 21 24 27 30 33 36 39 42 45 48 51 54 57 60 63 66 69 72 75 78 81 84 87 90 93 96 99 102 105 108 111 114 117 120 123 126 129 132 135 138 141 144 147 150 153 156 159 162 165 168 171 174 177 180 183 186 189 192 195 
        </DataArray>
        <DataArray type="UInt8" Name="types" format="ascii">
          5 5 5 5 5 5 5 5 5 5 5 5 5 5 5 5 5 5 5 5 5 5 5 5 5 5 5 5 5 5 5 5 5 5 5 5 5 5 5 5 5 5 5 5 5 5 5 5 5 5 5 5 5 5 5 5 5 5 5 5 5 5 5 5 5 
        </DataArray>
      </Cells>
      <CellData>
        <DataArray type="Float32" Name="F0_Alpha_SG_co2liq_mod.xml" format="ascii">
1.72298e-10 1.72357e-10 1.70949e-10 1.71365e-10 1.65183e-10 1.65099e-10 1.67965e-10 1.6774e-10 1.63986e-10 1.63838e-10 1.67757e-10 1.67757e-10 1.62226e-10 1.62526e-10 1.72678e-10 1.72629e-10 1.63153e-10 1.62924e-10 1.63637e-10 1.64544e-10 1.64879e-10 1.63184e-10 1.72682e-10 1.72682e-10 1.64948e-10 1.64985e-10 1.72682e-10 1.72682e-10 1.72682e-10 1.72682e-10 1.72684e-10 1.72682e-10 1.66956e-10 1.67296e-10 1.72682e-10 1.72682e-10 1.72682e-10 1.72682e-10 1.72682e-10 1.73304e-10 1.73304e-10 1.72682e-10 1.72682e-10 1.72684e-10 1.72711e-10 1.72881e-10 1.72881e-10 1.72711e-10 1.72684e-10 1.72682e-10 1.72682e-10 1.72682e-10 1.73342e-10 1.72682e-10 1.72682e-10 1.72682e-10 1.72682e-10 1.72683e-10 1.72682e-10 1.72685e-10 1.72701e-10 1.72832e-10 1.72722e-10 1.73223e-10 1.7293e-10 
        </DataArray>
        <DataArray type="Float32" Name="F0_Density_SG_co2liq_mod.xml" format="ascii">
5920.74 5917.21 5997.61 5973.48 6488.33 6493.67 6175.04 6188.08 6569.86 6577.74 6346.54 6346.52 6712.1 6691.93 5897.4 5900.5 6551.99 6568.76 6454.78 6428.78 6409.5 6479.91 5897.11 5897.14 6451.4 6449.06 5897.13 5897.13 5897.12 5897.12 5897.01 5897.13 6217.01 6197.17 5897.13 5897.13 5897.13 5897.13 5897.13 5854.65 5854.65 5897.13 5897.12 5897 5895.31 5884.21 5884.21 5895.31 5897 5897.12 5897.13 5897.13 5847.94 5897.13 5897.13 5897.13 5897.13 5897.05 5897.12 5896.91 5895.93 5887.45 5894.56 5860.66 5880.9 
        </DataArray>
        <DataArray type="Float32" Name="F0_Temperature_SG_co2liq_mod.xml" format="ascii">
41.8486 41.8392 42.0118 41.9677 42.4165 42.4186 42.2308 42.2422 42.4448 42.4473 42.3512 42.3512 42.4824 42.4779 41.7815 41.7911 42.4391 42.4445 42.4031 42.3919 42.3831 42.4133 41.7806 41.7807 42.4017 42.4007 41.7807 41.7807 41.7806 41.7806 41.7803 41.7807 42.2659 42.2499 41.7807 41.7807 41.7807 41.7807 41.7807 41.6165 41.6165 41.7807 41.7807 41.7803 41.7749 41.7377 41.7378 41.7749 41.7803 41.7807 41.7807 41.7807 41.5824 41.7807 41.7807 41.7807 41.7807 41.7804 41.7806 41.78 41.7769 41.749 41.7725 41.6445 41.7259 
        </DataArray>
        <DataArray type="Float32" Name="F0_Mass fraction_SG_co2liq_mod.xml" format="ascii">
8.73061e-09 8.84446e-09 6.93136e-09 7.41897e-09 2.46697e-09 2.45499e-09 4.68396e-09 4.58335e-09 2.28359e-09 2.27293e-09 2.76157e-09 2.76164e-09 1.98745e-09 2.01752e-09 9.58302e-09 9.45565e-09 2.52841e-09 2.48356e-09 3.07304e-09 3.01036e-09 3.06809e-09 3.00534e-09 9.5953e-09 9.59408e-09 2.73632e-09 2.74293e-09 9.5944e-09 9.59441e-09 9.59503e-09 9.59494e-09 9.59965e-09 9.59443e-09 4.56431e-09 4.71841e-09 9.5944e-09 9.5944e-09 9.5944e-09 9.5944e-09 9.5944e-09 1.20163e-08 1.20162e-08 9.59441e-09 9.59463e-09 9.6e-09 9.67186e-09 1.0183e-08 1.01827e-08 9.67192e-09 9.60003e-09 9.59464e-09 9.59441e-09 9.5944e-09 1.28298e-08 9.5944e-09 9.5944e-09 9.59441e-09 9.59451e-09 9.59758e-09 9.59484e-09 9.60357e-09 9.64508e-09 1.0026e-08 9.70442e-09 1.15666e-08 1.03531e-08 
        </DataArray>
        <DataArray type="Float32" Name="F1_Alpha_SG_co2gas_mod.xml" format="ascii">
1 1 1 1 1 1 1 1 1 1 1 1 1 1 1 1 1 1 1 1 1 1 1 1 1 1 1 1 1 1 1 1 1 1 1 1 1 1 1 1 1 1 1 1 1 1 1 1 1 1 1 1 1 1 1 1 1 1 1 1 1 1 1 1 1 
        </DataArray>
        <DataArray type="Float32" Name="F1_Density_SG_co2gas_mod.xml" format="ascii">
116.845 115.312 147.92 137.977 434.444 436.702 221.435 226.469 471.787 474.139 385.533 385.523 547.877 539.086 106.266 107.724 422.787 430.917 343.714 351.393 344.446 351.845 106.128 106.141 388.897 387.906 106.138 106.138 106.131 106.132 106.079 106.137 227.41 219.726 106.138 106.138 106.138 106.138 106.138 84.4378 84.4387 106.138 106.135 106.075 105.273 99.8987 99.9021 105.272 106.074 106.135 106.138 106.138 79.0113 106.138 106.138 106.138 106.136 106.102 106.133 106.035 105.57 101.49 104.913 87.7706 98.2299 
        </DataArray>
        <DataArray type="Float32" Name="F1_Temperature_SG_co2gas_mod.xml" format="ascii">
469.77 469.176 481.166 479.912 371.458 371.67 475.777 475.839 372.034 373.058 353.866 353.865 364.92 364.484 466.42 466.814 407.846 406.879 452.468 429.604 428.427 454.49 466.383 466.386 398.374 398.336 466.385 466.385 466.383 466.384 466.37 466.385 497.251 498.07 466.385 466.385 466.385 466.385 466.385 460.475 460.476 466.385 466.385 466.369 466.157 464.726 464.723 466.157 466.369 466.385 466.385 466.385 468.622 466.385 466.385 466.385 466.385 466.376 466.384 466.358 466.235 465.146 466.068 461.322 464.423 
        </DataArray>
        <DataArray type="Float32" Name="F1_Mass fraction_SG_co2gas_mod.xml" format="ascii">
1 1 1 1 1 1 1 1 1 1 1 1 1 1 1 1 1 1 1 1 1 1 1 1 1 1 1 1 1 1 1 1 1 1 1 1 1 1 1 1 1 1 1 1 1 1 1 1 1 1 1 1 1 1 1 1 1 1 1 1 1 1 1 1 1 
        </DataArray>
        <DataArray type="Float32" Name="Density_Mixture" format="ascii">
116.845 115.312 147.92 137.977 434.444 436.702 221.435 226.469 471.787 474.139 385.533 385.523 547.877 539.086 106.266 107.724 422.787 430.917 343.714 351.393 344.446 351.845 106.128 106.141 388.897 387.906 106.138 106.138 106.131 106.132 106.079 106.137 227.41 219.726 106.138 106.138 106.138 106.138 106.138 84.4378 84.4387 106.138 106.135 106.075 105.273 99.8987 99.9021 105.272 106.074 106.135 106.138 106.138 79.0113 106.138 106.138 106.138 106.136 106.102 106.133 106.035 105.57 101.49 104.913 87.7706 98.2299 
        </DataArray>
        <DataArray type="Float32" Name="Pressure_Mixture" format="ascii">
7.05117e+06 6.93711e+06 9.40577e+06 8.68893e+06 2.24492e+07 2.25839e+07 1.43481e+07 1.46965e+07 2.44943e+07 2.46911e+07 1.88414e+07 1.88408e+07 2.80241e+07 2.75262e+07 6.28103e+06 6.38547e+06 2.40477e+07 2.44669e+07 2.16021e+07 2.09428e+07 2.04526e+07 2.2237e+07 6.27114e+06 6.27212e+06 2.15164e+07 2.14571e+07 6.27186e+06 6.27185e+06 6.27135e+06 6.27142e+06 6.26763e+06 6.27183e+06 1.54653e+07 1.49389e+07 6.27186e+06 6.27186e+06 6.27186e+06 6.27186e+06 6.27186e+06 4.73626e+06 4.73633e+06 6.27185e+06 6.27167e+06 6.26736e+06 6.21004e+06 5.82713e+06 5.82732e+06 6.20999e+06 6.26733e+06 6.27167e+06 6.27185e+06 6.27186e+06 4.46803e+06 6.27186e+06 6.27186e+06 6.27185e+06 6.27177e+06 6.2693e+06 6.2715e+06 6.26448e+06 6.23129e+06 5.94021e+06 6.18445e+06 4.96892e+06 5.71069e+06 
        </DataArray>
        <DataArray type="Float32" Name="Velocity_Mixture" NumberOfComponents="3" format="ascii">
29.3997 -1.28354 0 18.1468 4.34963 0 89.8185 -8.15512 0 72.9362 -5.70163 0 322.298 15.7338 0 322.67 -18.7162 0 209.84 -8.06487 0 215.213 10.7493 0 309.18 45.0935 0 309.131 -45.2133 0 343.545 0.089283 0 343.548 -0.0868367 0 287.601 -42.7193 0 289.168 45.418 0 0.164978 -0.685506 0 3.69191 -1.82784 0 289.453 -63.0928 0 292.241 76.3054 0 276.171 -53.7251 0 276.301 25.8786 0 280.248 -16.7501 0 269.112 77.3431 0 -0.322908 -0.279203 0 0.0133483 -0.00513 0 296.059 -15.3832 0 295.884 16.8448 0 1.62875e-05 0 0 -0.000105975 6.445e-05 0 -0.016532 -0.00447894 0 -0.00344493 0.0166739 0 -0.119856 0.0999984 0 -0.00061588 0.000899516 0 183.992 60.091 0 203.225 -33.2104 0 0 0 0 0 0 0 0 0 0 0 0 0 0 0 0 24.2915 -0.792074 0 24.2944 0.796054 0 0 -2.79456e-05 0 0.00121953 -0.000944832 0 0.0323597 -0.0171288 0 0.495388 -0.158753 0 4.39158 -0.639197 0 4.41617 0.628428 0 0.515735 0.151529 0 0.0343947 0.0165378 0 0.00132951 0.000923629 0 0 3.02168e-05 0 0 0 0 65.1251 0.00495712 0 0 0 0 0 0 0 0.000583324 -4.16637e-06 0 0.00101194 0.000125289 0 0.0327452 0.00316526 0 0.0216976 -0.000614706 0 0.463771 -0.0113613 0 0.621253 0.0401357 0 6.73193 0.130144 0 5.4551 -0.107828 0 40.6309 -0.0034868 0 31.9367 -0.129382 0 
        </DataArray>
        <DataArray type="Float32" Name="gradRho" format="ascii">
10.4408 8.0131 30.7274 32.3595 21.9305 22.3147 62.6542 66.5003 37.2726 41.7971 33.9704 35.5441 17.409 15.8885 2.2895 3.22334 33.2541 29.9858 72.9613 54.3295 56.0855 73.2187 0.551387 0.0443945 30.6605 27.61 0.000164918 0.00222055 0.0203762 0.0274035 0.0157472 0.00297016 56.3435 53.3256 4.70261e-06 5.39122e-06 8.71431e-07 2.8723e-07 2.38534e-07 0.830208 0.830508 1.49282e-05 0.000370358 0.0059004 0.0499867 0.235842 0.235997 0.0498797 0.00578153 0.000355398 1.22796e-05 1.07673e-07 0.78242 8.15578e-06 1.21729e-05 0.000406281 0.000528329 0.013432 0.0110203 0.166424 0.191202 1.35092 1.23268 3.98107 3.82134 
        </DataArray>
      </CellData>
    </Piece>
  </UnstructuredGrid>
</VTKFile>
