<?xml version="1.0"?>
<VTKFile type="UnstructuredGrid" version="0.1" byte_order="LittleEndian">
  <UnstructuredGrid>
    <Piece NumberOfPoints="50" NumberOfCells="65">
      <Points>
        <DataArray type="Float32" NumberOfComponents="3" format="ascii">
          0 5 0 0 -5 0 15 0.2 0 15 -0.2 0 35 0.2 0 35 -0.2 0 2.14286 4.31429 0 4.28571 3.62857 0 6.42857 2.94286 0 8.57143 2.25714 0 10.7143 1.57143 0 12.8571 0.885714 0 17.8571 0.2 0 20.7143 0.2 0 23.5714 0.2 0 26.4286 0.2 0 29.2857 0.2 0 32.1429 0.2 0 32.1429 -0.2 0 29.2857 -0.2 0 26.4286 -0.2 0 23.5714 -0.2 0 20.7143 -0.2 0 17.8571 -0.2 0 12.8571 -0.885714 0 10.7143 -1.57143 0 8.57143 -2.25714 0 6.42857 -2.94286 0 4.28571 -3.62857 0 2.14286 -4.31429 0 0 -2.5 0 0 -6.16307e-12 0 0 2.5 0 3.95974 -5.7158e-13 0 13.9286 -3.66374e-15 0 6.61813 2.81487e-12 0 2.86365 2.0434 0 2.86365 -2.0434 0 9.43036 1.987e-12 0 11.3926 2.79508e-14 0 4.83116 1.72297 0 4.83116 -1.72297 0 1.90629 -3.21031e-12 0 33.5714 0 0 16.4286 -1.80625e-18 0 25 6.93889e-18 0 19.2857 -6.93889e-18 0 30.7143 0 0 22.1429 0 0 27.8571 0 0 
        </DataArray>
      </Points>
      <Cells>
        <DataArray type="Int32" Name="connectivity" format="ascii">
          8 9 35 26 27 35 8 35 40 27 41 35 30 42 37 32 36 42 33 40 35 33 35 41 29 30 37 6 36 32 30 31 42 31 32 42 0 6 32 30 29 1 26 35 38 9 38 35 6 7 36 28 29 37 7 40 36 33 41 37 33 36 40 28 37 41 9 10 38 25 26 38 33 42 36 33 37 42 11 34 24 24 25 39 10 11 39 25 38 39 10 39 38 11 24 39 27 28 41 7 8 40 2 34 11 3 24 34 2 3 34 2 44 12 3 23 44 4 17 43 5 43 18 12 46 13 13 48 14 14 45 15 15 49 16 16 47 17 18 47 19 19 49 20 20 45 21 21 48 22 22 46 23 2 3 44 4 43 5 12 44 23 12 23 46 13 46 22 13 22 48 14 21 45 14 48 21 15 45 20 15 20 49 16 19 47 16 49 19 17 18 43 17 47 18 
        </DataArray>
        <DataArray type="Int32" Name="offsets" format="ascii">
          3 6 9 12 15 18 21 24 27 30 33 36 39 42 45 48 51 54 57 60 63 66 69 72 75 78 81 84 87 90 93 96 99 102 105 108 111 114 117 120 123 126 129 132 135 138 141 144 147 150 153 156 159 162 165 168 171 174 177 180 183 186 189 192 195 
        </DataArray>
        <DataArray type="UInt8" Name="types" format="ascii">
          5 5 5 5 5 5 5 5 5 5 5 5 5 5 5 5 5 5 5 5 5 5 5 5 5 5 5 5 5 5 5 5 5 5 5 5 5 5 5 5 5 5 5 5 5 5 5 5 5 5 5 5 5 5 5 5 5 5 5 5 5 5 5 5 5 
        </DataArray>
      </Cells>
      <CellData>
        <DataArray type="Float32" Name="F0_Alpha_SG_co2liq_mod.xml" format="ascii">
1.72682e-10 1.72682e-10 1.72683e-10 1.72683e-10 1.66858e-10 1.66928e-10 1.7267e-10 1.72669e-10 1.67597e-10 1.67406e-10 1.67865e-10 1.67865e-10 1.65828e-10 1.66023e-10 1.72682e-10 1.72682e-10 1.71046e-10 1.70306e-10 1.7239e-10 1.72172e-10 1.72136e-10 1.72661e-10 1.72682e-10 1.72682e-10 1.70708e-10 1.70698e-10 1.72682e-10 1.72682e-10 1.72682e-10 1.72682e-10 1.72682e-10 1.72682e-10 1.72694e-10 1.72681e-10 1.72682e-10 1.72682e-10 1.72682e-10 1.72682e-10 1.72682e-10 1.73031e-10 1.73031e-10 1.72682e-10 1.72682e-10 1.72682e-10 1.72683e-10 1.72708e-10 1.72708e-10 1.72683e-10 1.72682e-10 1.72682e-10 1.72682e-10 1.72682e-10 1.7311e-10 1.72682e-10 1.72682e-10 1.72682e-10 1.72682e-10 1.72682e-10 1.72682e-10 1.72682e-10 1.72682e-10 1.72695e-10 1.72683e-10 1.72935e-10 1.72727e-10 
        </DataArray>
        <DataArray type="Float32" Name="F0_Density_SG_co2liq_mod.xml" format="ascii">
5897.13 5897.13 5897.08 5897.09 6306.29 6302.34 5897.91 5897.98 6249.06 6258.46 6311.41 6311.44 6434.28 6421.61 5897.13 5897.13 5996.65 6040.04 5915.33 5928.35 5930.55 5898.37 5897.13 5897.13 6012.88 6013.56 5897.13 5897.13 5897.13 5897.13 5897.13 5897.13 5896.38 5897.21 5897.13 5897.13 5897.13 5897.13 5897.13 5874.18 5874.18 5897.13 5897.13 5897.13 5897.09 5895.47 5895.46 5897.09 5897.13 5897.13 5897.13 5897.13 5865.81 5897.13 5897.13 5897.13 5897.13 5897.13 5897.13 5897.13 5897.12 5896.27 5897.04 5880.63 5894.25 
        </DataArray>
        <DataArray type="Float32" Name="F0_Temperature_SG_co2liq_mod.xml" format="ascii">
41.7807 41.7807 41.7805 41.7805 42.3279 42.3254 41.7831 41.7833 42.29 42.2966 42.331 42.331 42.3944 42.3887 41.7807 41.7807 42.0101 42.0784 41.8341 41.8683 41.8737 41.7846 41.7807 41.7807 42.0372 42.0383 41.7807 41.7807 41.7807 41.7807 41.7807 41.7807 41.7783 41.7809 41.7807 41.7807 41.7807 41.7807 41.7807 41.7008 41.7008 41.7807 41.7807 41.7807 41.7806 41.7754 41.7754 41.7806 41.7807 41.7807 41.7807 41.7807 41.667 41.7807 41.7807 41.7807 41.7807 41.7807 41.7807 41.7807 41.7806 41.778 41.7804 41.725 41.7715 
        </DataArray>
        <DataArray type="Float32" Name="F0_Mass fraction_SG_co2liq_mod.xml" format="ascii">
9.5945e-09 9.59437e-09 9.59661e-09 9.59615e-09 3.35989e-09 3.37494e-09 9.56178e-09 9.55901e-09 3.70897e-09 3.67659e-09 2.99066e-09 2.99057e-09 2.64154e-09 2.67643e-09 9.5944e-09 9.59441e-09 6.82616e-09 6.11326e-09 8.90495e-09 8.4915e-09 8.42455e-09 9.54639e-09 9.5944e-09 9.5944e-09 6.62475e-09 6.61197e-09 9.5944e-09 9.5944e-09 9.5944e-09 9.5944e-09 9.5944e-09 9.5944e-09 9.62625e-09 9.59094e-09 9.5944e-09 9.5944e-09 9.5944e-09 9.5944e-09 9.5944e-09 1.07148e-08 1.07148e-08 9.5944e-09 9.5944e-09 9.59441e-09 9.59597e-09 9.66496e-09 9.6654e-09 9.59603e-09 9.59442e-09 9.5944e-09 9.5944e-09 9.5944e-09 1.13933e-08 9.5944e-09 9.5944e-09 9.5944e-09 9.5944e-09 9.5944e-09 9.5944e-09 9.59444e-09 9.59498e-09 9.63079e-09 9.59815e-09 1.03639e-08 9.71812e-09 
        </DataArray>
        <DataArray type="Float32" Name="F1_Alpha_SG_co2gas_mod.xml" format="ascii">
1 1 1 1 1 1 1 1 1 1 1 1 1 1 1 1 1 1 1 1 1 1 1 1 1 1 1 1 1 1 1 1 1 1 1 1 1 1 1 1 1 1 1 1 1 1 1 1 1 1 1 1 1 1 1 1 1 1 1 1 1 1 1 1 1 
        </DataArray>
        <DataArray type="Float32" Name="F1_Density_SG_co2gas_mod.xml" format="ascii">
106.137 106.138 106.113 106.118 313.182 311.719 106.506 106.538 282.377 284.966 354.258 354.27 403.924 398.342 106.138 106.138 150.26 168.266 114.514 120.202 121.177 106.681 106.138 106.138 154.942 155.249 106.138 106.138 106.138 106.138 106.138 106.138 105.78 106.177 106.138 106.138 106.138 106.138 106.138 94.8604 94.8609 106.138 106.138 106.138 106.12 105.349 105.344 106.119 106.138 106.138 106.138 106.138 89.1254 106.138 106.138 106.138 106.138 106.138 106.138 106.137 106.131 105.729 106.096 98.126 104.763 
        </DataArray>
        <DataArray type="Float32" Name="F1_Temperature_SG_co2gas_mod.xml" format="ascii">
466.385 466.385 466.379 466.38 412.666 412.333 466.485 466.493 421.136 423.293 367.409 367.41 376.124 375.811 466.385 466.385 472.374 473.387 468.74 470.703 470.904 466.736 466.385 466.385 479.26 479.191 466.385 466.385 466.385 466.385 466.385 466.385 466.291 466.396 466.385 466.385 466.385 466.385 466.385 463.397 463.397 466.385 466.385 466.385 466.381 466.177 466.176 466.38 466.385 466.385 466.385 466.385 469.394 466.385 466.385 466.385 466.385 466.385 466.385 466.385 466.384 466.278 466.374 464.239 466.038 
        </DataArray>
        <DataArray type="Float32" Name="F1_Mass fraction_SG_co2gas_mod.xml" format="ascii">
1 1 1 1 1 1 1 1 1 1 1 1 1 1 1 1 1 1 1 1 1 1 1 1 1 1 1 1 1 1 1 1 1 1 1 1 1 1 1 1 1 1 1 1 1 1 1 1 1 1 1 1 1 1 1 1 1 1 1 1 1 1 1 1 1 
        </DataArray>
        <DataArray type="Float32" Name="Density_Mixture" format="ascii">
106.137 106.138 106.113 106.118 313.182 311.719 106.506 106.538 282.377 284.966 354.258 354.27 403.924 398.342 106.138 106.138 150.26 168.266 114.514 120.202 121.177 106.681 106.138 106.138 154.942 155.249 106.138 106.138 106.138 106.138 106.138 106.138 105.78 106.177 106.138 106.138 106.138 106.138 106.138 94.8604 94.8609 106.138 106.138 106.138 106.12 105.349 105.344 106.119 106.138 106.138 106.138 106.138 89.1254 106.138 106.138 106.138 106.138 106.138 106.138 106.137 106.131 105.729 106.096 98.126 104.763 
        </DataArray>
        <DataArray type="Float32" Name="Pressure_Mixture" format="ascii">
6.27177e+06 6.27188e+06 6.27008e+06 6.27045e+06 1.7802e+07 1.76997e+07 6.29825e+06 6.3005e+06 1.63097e+07 1.65563e+07 1.79348e+07 1.79355e+07 2.10824e+07 2.07608e+07 6.27186e+06 6.27185e+06 9.37759e+06 1.06321e+07 6.87574e+06 7.29538e+06 7.36525e+06 6.31392e+06 6.27186e+06 6.27186e+06 9.85161e+06 9.87135e+06 6.27186e+06 6.27186e+06 6.27186e+06 6.27186e+06 6.27186e+06 6.27186e+06 6.24631e+06 6.27465e+06 6.27186e+06 6.27186e+06 6.27186e+06 6.27186e+06 6.27186e+06 5.47033e+06 5.47036e+06 6.27186e+06 6.27186e+06 6.27185e+06 6.27059e+06 6.21551e+06 6.21516e+06 6.27055e+06 6.27185e+06 6.27186e+06 6.27186e+06 6.27186e+06 5.16334e+06 6.27186e+06 6.27186e+06 6.27186e+06 6.27186e+06 6.27185e+06 6.27186e+06 6.27182e+06 6.27139e+06 6.24268e+06 6.26884e+06 5.70109e+06 6.17385e+06 
        </DataArray>
        <DataArray type="Float32" Name="Velocity_Mixture" NumberOfComponents="3" format="ascii">
-0.00311718 0.000111114 0 0.000609506 0.000251593 0 -0.0361505 0.0649302 0 -0.0284717 -0.050807 0 269.283 -7.19892 0 270.197 9.10981 0 0.86542 -0.308948 0 0.943749 0.343145 0 257.517 46.1067 0 254.147 -38.8223 0 333.1 0.393097 0 333.094 -0.395723 0 305.455 -38.7662 0 301.856 52.138 0 0.000151071 0.000142972 0 -0.000309997 0.000235983 0 103.833 -7.17873 0 100.653 37.515 0 20.3784 -5.47741 0 36.6085 -8.86129 0 36.1285 7.97361 0 0.399999 -7.98257 0 0 0 0 0 0 0 115.933 -18.9341 0 116.882 20.445 0 0 0 0 0 0 0 0 0 0 0 0 0 0 0 0 0 0 0 -0.490464 -0.252945 0 -0.255817 -0.21483 0 0 0 0 0 0 0 0 0 0 0 0 0 0 0 0 7.71084 -1.34095 0 7.71052 1.34127 0 0 0 0 0 0 0 4.42881e-05 -0.000111242 0 0.00748371 -0.00935812 0 0.375652 -0.249624 0 0.40817 0.238875 0 0.0084363 0.00927107 0 5.63065e-05 0.000114692 0 0 0 0 0 0 0 0 0 0 41.9149 0.000289715 0 0 0 0 0 0 0 0 0 0 0 0 0 1.06368e-05 0 0 0 0 0 0.00183415 -6.76139e-05 0 0.00434612 0.000785373 0 0.315623 0.0477317 0 0.176687 -0.00600437 0 8.88926 -0.001762 0 6.26946 -0.18589 0 
        </DataArray>
        <DataArray type="Float32" Name="gradRho" format="ascii">
0.00701202 0.00573207 0.095379 0.194032 62.8732 62.844 5.72245 5.34328 64.5947 72.958 28.5292 29.5509 28.0847 27.3783 0.000130088 0.000360833 51.354 49.7597 12.951 17.7756 16.611 16.7891 4.70369e-05 1.91302e-05 64.2311 65.0627 0 5.0465e-08 1.27943e-07 5.4676e-07 2.26352e-06 2.04922e-11 0.28469 2.92539 0 0 0 0 0 0.908385 0.908545 1.66032e-09 3.71834e-07 6.41089e-05 0.00427929 0.0876202 0.0861225 0.00401308 5.78327e-05 3.17338e-07 1.63634e-09 0 0.82687 0 2.5031e-11 3.89616e-08 8.65696e-08 2.5567e-05 1.33392e-05 0.00214539 0.00323802 0.16495 0.130458 2.63664 2.37894 
        </DataArray>
      </CellData>
    </Piece>
  </UnstructuredGrid>
</VTKFile>
