<?xml version="1.0"?>
<VTKFile type="UnstructuredGrid" version="0.1" byte_order="LittleEndian">
  <UnstructuredGrid>
    <Piece NumberOfPoints="50" NumberOfCells="65">
      <Points>
        <DataArray type="Float32" NumberOfComponents="3" format="ascii">
          0 5 0 0 -5 0 15 0.2 0 15 -0.2 0 35 0.2 0 35 -0.2 0 2.14286 4.31429 0 4.28571 3.62857 0 6.42857 2.94286 0 8.57143 2.25714 0 10.7143 1.57143 0 12.8571 0.885714 0 17.8571 0.2 0 20.7143 0.2 0 23.5714 0.2 0 26.4286 0.2 0 29.2857 0.2 0 32.1429 0.2 0 32.1429 -0.2 0 29.2857 -0.2 0 26.4286 -0.2 0 23.5714 -0.2 0 20.7143 -0.2 0 17.8571 -0.2 0 12.8571 -0.885714 0 10.7143 -1.57143 0 8.57143 -2.25714 0 6.42857 -2.94286 0 4.28571 -3.62857 0 2.14286 -4.31429 0 0 -2.5 0 0 -6.16307e-12 0 0 2.5 0 3.95974 -5.7158e-13 0 13.9286 -3.66374e-15 0 6.61813 2.81487e-12 0 2.86365 2.0434 0 2.86365 -2.0434 0 9.43036 1.987e-12 0 11.3926 2.79508e-14 0 4.83116 1.72297 0 4.83116 -1.72297 0 1.90629 -3.21031e-12 0 33.5714 0 0 16.4286 -1.80625e-18 0 25 6.93889e-18 0 19.2857 -6.93889e-18 0 30.7143 0 0 22.1429 0 0 27.8571 0 0 
        </DataArray>
      </Points>
      <Cells>
        <DataArray type="Int32" Name="connectivity" format="ascii">
          8 9 35 26 27 35 8 35 40 27 41 35 30 42 37 32 36 42 33 40 35 33 35 41 29 30 37 6 36 32 30 31 42 31 32 42 0 6 32 30 29 1 26 35 38 9 38 35 6 7 36 28 29 37 7 40 36 33 41 37 33 36 40 28 37 41 9 10 38 25 26 38 33 42 36 33 37 42 11 34 24 24 25 39 10 11 39 25 38 39 10 39 38 11 24 39 27 28 41 7 8 40 2 34 11 3 24 34 2 3 34 2 44 12 3 23 44 4 17 43 5 43 18 12 46 13 13 48 14 14 45 15 15 49 16 16 47 17 18 47 19 19 49 20 20 45 21 21 48 22 22 46 23 2 3 44 4 43 5 12 44 23 12 23 46 13 46 22 13 22 48 14 21 45 14 48 21 15 45 20 15 20 49 16 19 47 16 49 19 17 18 43 17 47 18 
        </DataArray>
        <DataArray type="Int32" Name="offsets" format="ascii">
          3 6 9 12 15 18 21 24 27 30 33 36 39 42 45 48 51 54 57 60 63 66 69 72 75 78 81 84 87 90 93 96 99 102 105 108 111 114 117 120 123 126 129 132 135 138 141 144 147 150 153 156 159 162 165 168 171 174 177 180 183 186 189 192 195 
        </DataArray>
        <DataArray type="UInt8" Name="types" format="ascii">
          5 5 5 5 5 5 5 5 5 5 5 5 5 5 5 5 5 5 5 5 5 5 5 5 5 5 5 5 5 5 5 5 5 5 5 5 5 5 5 5 5 5 5 5 5 5 5 5 5 5 5 5 5 5 5 5 5 5 5 5 5 5 5 5 5 
        </DataArray>
      </Cells>
      <CellData>
        <DataArray type="Float32" Name="F0_Alpha_SG_co2liq_mod.xml" format="ascii">
1.7079e-10 1.70686e-10 1.67505e-10 1.67929e-10 1.65012e-10 1.64933e-10 1.65425e-10 1.64981e-10 1.63549e-10 1.6347e-10 1.67774e-10 1.67775e-10 1.61274e-10 1.61574e-10 1.72564e-10 1.72324e-10 1.6251e-10 1.62627e-10 1.6227e-10 1.63136e-10 1.63705e-10 1.61788e-10 1.72666e-10 1.72684e-10 1.6435e-10 1.6443e-10 1.72682e-10 1.72682e-10 1.72685e-10 1.72684e-10 1.72696e-10 1.72682e-10 1.63105e-10 1.63452e-10 1.72682e-10 1.72682e-10 1.72682e-10 1.72682e-10 1.72682e-10 1.73353e-10 1.73353e-10 1.72682e-10 1.72682e-10 1.72688e-10 1.72735e-10 1.72954e-10 1.72954e-10 1.72735e-10 1.72688e-10 1.72682e-10 1.72682e-10 1.72682e-10 1.73385e-10 1.72682e-10 1.72682e-10 1.72682e-10 1.72682e-10 1.72685e-10 1.72683e-10 1.7269e-10 1.72719e-10 1.72896e-10 1.72753e-10 1.73282e-10 1.73008e-10 
        </DataArray>
        <DataArray type="Float32" Name="F0_Density_SG_co2liq_mod.xml" format="ascii">
6006.69 6012.71 6186.03 6161.77 6510.98 6516.01 6343.74 6369.56 6614.26 6618.67 6347.48 6347.46 6781.64 6761.18 5904.58 5919.3 6627.2 6622.83 6582.9 6549.82 6517.07 6611.18 5898.15 5896.99 6515.08 6510.87 5897.13 5897.13 5896.96 5897.01 5896.22 5897.12 6451.97 6430.83 5897.13 5897.13 5897.13 5897.13 5897.13 5850.85 5850.85 5897.13 5897.11 5896.77 5893.72 5879.41 5879.41 5893.72 5896.77 5897.11 5897.13 5897.13 5844.59 5897.13 5897.13 5897.13 5897.12 5896.91 5897.09 5896.6 5894.74 5883.27 5892.58 5856.37 5875.67 
        </DataArray>
        <DataArray type="Float32" Name="F0_Temperature_SG_co2liq_mod.xml" format="ascii">
42.0271 42.0369 42.2405 42.2187 42.425 42.4268 42.3497 42.3635 42.458 42.4593 42.3517 42.3517 42.4964 42.4925 41.8034 41.8448 42.4616 42.4604 42.4489 42.4384 42.4272 42.4572 41.7839 41.7802 42.4265 42.4249 41.7807 41.7807 41.7801 41.7803 41.7778 41.7806 42.4019 42.3928 41.7807 41.7807 41.7807 41.7807 41.7807 41.5976 41.5976 41.7807 41.7806 41.7796 41.7698 41.7205 41.7205 41.7698 41.7795 41.7806 41.7807 41.7807 41.5641 41.7807 41.7807 41.7807 41.7806 41.78 41.7806 41.779 41.7731 41.7344 41.7661 41.6247 41.7065 
        </DataArray>
        <DataArray type="Float32" Name="F0_Mass fraction_SG_co2liq_mod.xml" format="ascii">
6.7692e-09 6.66384e-09 4.79549e-09 5.00165e-09 2.38319e-09 2.37263e-09 3.51317e-09 3.40887e-09 2.164e-09 2.15815e-09 2.75114e-09 2.7512e-09 1.88239e-09 1.90958e-09 9.2952e-09 8.77345e-09 2.27348e-09 2.2733e-09 2.54143e-09 2.54436e-09 2.61152e-09 2.48602e-09 9.55159e-09 9.60041e-09 2.48723e-09 2.49413e-09 9.59437e-09 9.59446e-09 9.60164e-09 9.59939e-09 9.63272e-09 9.59497e-09 3.27884e-09 3.36016e-09 9.59439e-09 9.5944e-09 9.5944e-09 9.5944e-09 9.5944e-09 1.23265e-08 1.23265e-08 9.59444e-09 9.59532e-09 9.60943e-09 9.74089e-09 1.04277e-08 1.04277e-08 9.74059e-09 9.60947e-09 9.59533e-09 9.59444e-09 9.5944e-09 1.31457e-08 9.5944e-09 9.59442e-09 9.59447e-09 9.59491e-09 9.60375e-09 9.59597e-09 9.61691e-09 9.69626e-09 1.02293e-08 9.79132e-09 1.188e-08 1.06342e-08 
        </DataArray>
        <DataArray type="Float32" Name="F1_Alpha_SG_co2gas_mod.xml" format="ascii">
1 1 1 1 1 1 1 1 1 1 1 1 1 1 1 1 1 1 1 1 1 1 1 1 1 1 1 1 1 1 1 1 1 1 1 1 1 1 1 1 1 1 1 1 1 1 1 1 1 1 1 1 1 1 1 1 1 1 1 1 1 1 1 1 1 
        </DataArray>
        <DataArray type="Float32" Name="F1_Density_SG_co2gas_mod.xml" format="ascii">
151.552 154.008 216.077 206.88 450.821 452.961 298.709 308.272 499.888 501.333 387.093 387.082 581.019 572.08 109.617 116.264 473.716 473.783 420.316 419.953 408.527 430.25 106.622 106.07 430.501 429.24 106.138 106.137 106.056 106.082 105.708 106.131 320.952 312.822 106.138 106.138 106.138 106.138 106.138 82.283 82.2835 106.137 106.127 105.969 104.513 97.5161 97.5157 104.517 105.968 106.127 106.137 106.138 77.0873 106.138 106.138 106.137 106.132 106.033 106.12 105.885 105.003 99.439 103.966 85.4211 95.591 
        </DataArray>
        <DataArray type="Float32" Name="F1_Temperature_SG_co2gas_mod.xml" format="ascii">
481.756 481.94 496.979 497.334 366.711 366.907 455.054 455.813 366.429 366.885 352.874 352.874 364.471 364.092 467.358 469.365 391.368 389.73 422.948 409.703 407.266 424.506 466.509 466.368 385.671 385.101 466.385 466.385 466.364 466.371 466.272 466.384 483.02 483.728 466.385 466.385 466.385 466.385 466.385 459.863 459.863 466.385 466.383 466.341 465.956 464.081 464.076 465.957 466.341 466.383 466.385 466.385 467.9 466.385 466.385 466.385 466.384 466.358 466.381 466.319 466.085 464.589 465.824 460.627 463.754 
        </DataArray>
        <DataArray type="Float32" Name="F1_Mass fraction_SG_co2gas_mod.xml" format="ascii">
1 1 1 1 1 1 1 1 1 1 1 1 1 1 1 1 1 1 1 1 1 1 1 1 1 1 1 1 1 1 1 1 1 1 1 1 1 1 1 1 1 1 1 1 1 1 1 1 1 1 1 1 1 1 1 1 1 1 1 1 1 1 1 1 1 
        </DataArray>
        <DataArray type="Float32" Name="Density_Mixture" format="ascii">
151.552 154.008 216.077 206.88 450.821 452.961 298.709 308.272 499.888 501.333 387.093 387.082 581.019 572.08 109.617 116.264 473.716 473.783 420.316 419.953 408.527 430.25 106.622 106.07 430.501 429.24 106.138 106.137 106.056 106.082 105.708 106.131 320.952 312.822 106.138 106.138 106.138 106.138 106.138 82.283 82.2836 106.137 106.127 105.969 104.513 97.5161 97.5157 104.517 105.968 106.127 106.137 106.138 77.0873 106.138 106.138 106.137 106.132 106.033 106.12 105.885 105.003 99.439 103.966 85.4211 95.591 
        </DataArray>
        <DataArray type="Float32" Name="Pressure_Mixture" format="ascii">
9.67139e+06 9.8466e+06 1.4642e+07 1.39917e+07 2.30194e+07 2.31457e+07 1.87693e+07 1.94324e+07 2.56009e+07 2.57105e+07 1.88656e+07 1.88651e+07 2.97352e+07 2.92327e+07 6.52194e+06 7.00485e+06 2.59225e+07 2.5814e+07 2.48198e+07 2.39933e+07 2.31724e+07 2.55243e+07 6.30642e+06 6.26702e+06 2.31222e+07 2.30165e+07 6.27188e+06 6.27181e+06 6.26603e+06 6.26784e+06 6.24115e+06 6.2714e+06 2.15308e+07 2.0995e+07 6.27186e+06 6.27186e+06 6.27186e+06 6.27186e+06 6.27186e+06 4.5855e+06 4.58554e+06 6.27183e+06 6.27112e+06 6.25978e+06 6.15582e+06 5.65792e+06 5.65783e+06 6.15606e+06 6.25974e+06 6.27111e+06 6.27183e+06 6.27186e+06 4.3296e+06 6.27186e+06 6.27184e+06 6.2718e+06 6.27145e+06 6.26434e+06 6.2706e+06 6.25379e+06 6.19078e+06 5.79427e+06 6.11693e+06 4.80361e+06 5.52422e+06 
        </DataArray>
        <DataArray type="Float32" Name="Velocity_Mixture" NumberOfComponents="3" format="ascii">
111.132 -10.3632 0 90.6771 24.9605 0 191.128 -25.5583 0 186.345 24.5516 0 322.802 24.6886 0 322.653 -26.8683 0 269.869 -13.0177 0 274.405 21.6269 0 306.396 48.0787 0 306.57 -48.7759 0 343.749 0.069185 0 343.752 -0.0663664 0 278.347 -42.5525 0 279.891 45.4601 0 6.5055 -0.92445 0 25.2292 -9.17657 0 293.464 -68.6192 0 297.352 76.464 0 292.266 -66.3263 0 288.575 40.0378 0 295.335 -32.4159 0 286.036 83.9332 0 -1.02302 -1.72388 0 -0.14302 0.124494 0 303.669 -15.763 0 302.875 15.9929 0 0.00083494 -8.57974e-05 0 0.000206417 0.000471724 0 -0.19007 -0.0436093 0 -0.0536304 0.130672 0 -0.881055 0.803318 0 -0.0113145 0.0149948 0 261.111 80.8003 0 267.322 -60.3134 0 0.00011591 5.57957e-05 0 1.12135e-05 0 0 0 0 0 0 0 0 0 0 0 31.0509 -0.657217 0 31.0549 0.659496 0 0.000157838 -0.000148404 0 0.0052349 -0.00303771 0 0.0929082 -0.0366017 0 1.01269 -0.233449 0 6.88757 -0.677489 0 6.88916 0.663147 0 1.03711 0.224137 0 0.0974286 0.0351905 0 0.00559367 0.00294393 0 0.000178613 0.000143962 0 0 0 0 69.7799 0.00293165 0 5.83173e-05 0 0 0.000124779 0 0 0.00333798 -9.16253e-05 0 0.0051297 0.000514553 0 0.108716 0.00799638 0 0.0786292 -0.00200303 0 1.13209 -0.0243862 0 1.42728 0.0616392 0 11.2226 0.0662206 0 9.32685 -0.120372 0 51.0898 -0.0024704 0 40.0074 -0.0736058 0 
        </DataArray>
        <DataArray type="Float32" Name="gradRho" format="ascii">
24.4211 22.6706 47.1401 48.1166 27.7818 27.9839 60.3092 64.4891 38.2287 40.3404 44.261 45.7525 18.8132 17.0436 12.2557 13.646 20.2553 17.6298 59.9312 42.474 45.5892 57.842 3.47044 1.19884 14.7694 10.2857 0.00283703 0.0201741 0.140834 0.18077 0.117234 0.0344957 55.6462 51.9937 0.000114893 0.000147273 4.21375e-05 2.78239e-06 2.36731e-06 0.800955 0.801139 5.85483e-05 0.00108667 0.0118395 0.0762639 0.277389 0.277388 0.0766194 0.0117228 0.00105795 5.71176e-05 1.33846e-06 0.74912 6.13873e-05 8.0423e-05 0.0017692 0.00218615 0.0367988 0.0313351 0.316707 0.355577 1.76915 1.63711 3.86108 3.7445 
        </DataArray>
      </CellData>
    </Piece>
  </UnstructuredGrid>
</VTKFile>
