<?xml version="1.0"?>
<VTKFile type="UnstructuredGrid" version="0.1" byte_order="LittleEndian">
  <UnstructuredGrid>
    <Piece NumberOfPoints="50" NumberOfCells="65">
      <Points>
        <DataArray type="Float32" NumberOfComponents="3" format="ascii">
          0 5 0 0 -5 0 15 0.2 0 15 -0.2 0 35 0.2 0 35 -0.2 0 2.14286 4.31429 0 4.28571 3.62857 0 6.42857 2.94286 0 8.57143 2.25714 0 10.7143 1.57143 0 12.8571 0.885714 0 17.8571 0.2 0 20.7143 0.2 0 23.5714 0.2 0 26.4286 0.2 0 29.2857 0.2 0 32.1429 0.2 0 32.1429 -0.2 0 29.2857 -0.2 0 26.4286 -0.2 0 23.5714 -0.2 0 20.7143 -0.2 0 17.8571 -0.2 0 12.8571 -0.885714 0 10.7143 -1.57143 0 8.57143 -2.25714 0 6.42857 -2.94286 0 4.28571 -3.62857 0 2.14286 -4.31429 0 0 -2.5 0 0 -6.16307e-12 0 0 2.5 0 3.95974 -5.7158e-13 0 13.9286 -3.66374e-15 0 6.61813 2.81487e-12 0 2.86365 2.0434 0 2.86365 -2.0434 0 9.43036 1.987e-12 0 11.3926 2.79508e-14 0 4.83116 1.72297 0 4.83116 -1.72297 0 1.90629 -3.21031e-12 0 33.5714 0 0 16.4286 -1.80625e-18 0 25 6.93889e-18 0 19.2857 -6.93889e-18 0 30.7143 0 0 22.1429 0 0 27.8571 0 0 
        </DataArray>
      </Points>
      <Cells>
        <DataArray type="Int32" Name="connectivity" format="ascii">
          8 9 35 26 27 35 8 35 40 27 41 35 30 42 37 32 36 42 33 40 35 33 35 41 29 30 37 6 36 32 30 31 42 31 32 42 0 6 32 30 29 1 26 35 38 9 38 35 6 7 36 28 29 37 7 40 36 33 41 37 33 36 40 28 37 41 9 10 38 25 26 38 33 42 36 33 37 42 11 34 24 24 25 39 10 11 39 25 38 39 10 39 38 11 24 39 27 28 41 7 8 40 2 34 11 3 24 34 2 3 34 2 44 12 3 23 44 4 17 43 5 43 18 12 46 13 13 48 14 14 45 15 15 49 16 16 47 17 18 47 19 19 49 20 20 45 21 21 48 22 22 46 23 2 3 44 4 43 5 12 44 23 12 23 46 13 46 22 13 22 48 14 21 45 14 48 21 15 45 20 15 20 49 16 19 47 16 49 19 17 18 43 17 47 18 
        </DataArray>
        <DataArray type="Int32" Name="offsets" format="ascii">
          3 6 9 12 15 18 21 24 27 30 33 36 39 42 45 48 51 54 57 60 63 66 69 72 75 78 81 84 87 90 93 96 99 102 105 108 111 114 117 120 123 126 129 132 135 138 141 144 147 150 153 156 159 162 165 168 171 174 177 180 183 186 189 192 195 
        </DataArray>
        <DataArray type="UInt8" Name="types" format="ascii">
          5 5 5 5 5 5 5 5 5 5 5 5 5 5 5 5 5 5 5 5 5 5 5 5 5 5 5 5 5 5 5 5 5 5 5 5 5 5 5 5 5 5 5 5 5 5 5 5 5 5 5 5 5 5 5 5 5 5 5 5 5 5 5 5 5 
        </DataArray>
      </Cells>
      <CellData>
        <DataArray type="Float32" Name="F0_Alpha_SG_co2liq_mod.xml" format="ascii">
1.72249e-10 1.72309e-10 1.70782e-10 1.71209e-10 1.65173e-10 1.65088e-10 1.67781e-10 1.67545e-10 1.63956e-10 1.63809e-10 1.67758e-10 1.67759e-10 1.62162e-10 1.62462e-10 1.72676e-10 1.72621e-10 1.63092e-10 1.62895e-10 1.6351e-10 1.64428e-10 1.64785e-10 1.63046e-10 1.72682e-10 1.72682e-10 1.64903e-10 1.6494e-10 1.72682e-10 1.72682e-10 1.72682e-10 1.72682e-10 1.72684e-10 1.72682e-10 1.66628e-10 1.66997e-10 1.72682e-10 1.72682e-10 1.72682e-10 1.72682e-10 1.72682e-10 1.73308e-10 1.73308e-10 1.72682e-10 1.72682e-10 1.72684e-10 1.72712e-10 1.72886e-10 1.72886e-10 1.72712e-10 1.72684e-10 1.72682e-10 1.72682e-10 1.72682e-10 1.73345e-10 1.72682e-10 1.72682e-10 1.72682e-10 1.72682e-10 1.72683e-10 1.72682e-10 1.72686e-10 1.72702e-10 1.72836e-10 1.72724e-10 1.73228e-10 1.72936e-10 
        </DataArray>
        <DataArray type="Float32" Name="F0_Density_SG_co2liq_mod.xml" format="ascii">
5923.68 5920.1 6006.84 5982.13 6489.88 6495.24 6186.54 6200.19 6573.14 6580.88 6346.63 6346.61 6716.86 6696.65 5897.5 5901 6558.28 6573.23 6465.49 6438.24 6417.67 6491.16 5897.11 5897.14 6456.12 6453.76 5897.13 5897.13 5897.11 5897.11 5896.98 5897.13 6235.27 6213.8 5897.13 5897.13 5897.13 5897.13 5897.13 5854.37 5854.37 5897.13 5897.12 5896.99 5895.22 5883.9 5883.9 5895.22 5896.99 5897.12 5897.13 5897.13 5847.69 5897.13 5897.13 5897.13 5897.13 5897.05 5897.12 5896.9 5895.87 5887.19 5894.45 5860.36 5880.56 
        </DataArray>
        <DataArray type="Float32" Name="F0_Temperature_SG_co2liq_mod.xml" format="ascii">
41.8563 41.8469 42.0274 41.9841 42.4171 42.4192 42.2409 42.2524 42.4459 42.4483 42.3513 42.3512 42.4834 42.4789 41.7818 41.7927 42.4412 42.4459 42.4075 42.3961 42.3869 42.4176 41.7806 41.7807 42.4037 42.4027 41.7807 41.7807 41.7806 41.7806 41.7802 41.7807 42.2799 42.2634 41.7807 41.7807 41.7807 41.7807 41.7807 41.6151 41.6151 41.7807 41.7807 41.7802 41.7746 41.7367 41.7367 41.7746 41.7802 41.7807 41.7807 41.7807 41.5811 41.7807 41.7807 41.7807 41.7807 41.7804 41.7806 41.7799 41.7767 41.7481 41.7721 41.6431 41.7247 
        </DataArray>
        <DataArray type="Float32" Name="F0_Mass fraction_SG_co2liq_mod.xml" format="ascii">
8.63788e-09 8.7498e-09 6.77448e-09 7.24834e-09 2.46079e-09 2.44883e-09 4.58512e-09 4.48447e-09 2.27399e-09 2.26375e-09 2.76061e-09 2.76069e-09 1.97976e-09 2.00963e-09 9.57896e-09 9.43538e-09 2.50626e-09 2.46545e-09 3.02357e-09 2.96909e-09 3.02887e-09 2.9569e-09 9.59534e-09 9.59392e-09 2.71614e-09 2.72276e-09 9.5944e-09 9.59441e-09 9.59515e-09 9.59508e-09 9.60057e-09 9.59444e-09 4.44244e-09 4.59823e-09 9.5944e-09 9.5944e-09 9.5944e-09 9.5944e-09 9.5944e-09 1.20382e-08 1.20381e-08 9.59441e-09 9.59466e-09 9.60042e-09 9.67557e-09 1.01983e-08 1.01981e-08 9.6756e-09 9.60045e-09 9.59466e-09 9.59441e-09 9.5944e-09 1.28527e-08 9.5944e-09 9.5944e-09 9.59441e-09 9.59453e-09 9.59784e-09 9.59488e-09 9.60419e-09 9.64777e-09 1.00385e-08 9.70918e-09 1.15881e-08 1.0371e-08 
        </DataArray>
        <DataArray type="Float32" Name="F1_Alpha_SG_co2gas_mod.xml" format="ascii">
1 1 1 1 1 1 1 1 1 1 1 1 1 1 1 1 1 1 1 1 1 1 1 1 1 1 1 1 1 1 1 1 1 1 1 1 1 1 1 1 1 1 1 1 1 1 1 1 1 1 1 1 1 1 1 1 1 1 1 1 1 1 1 1 1 
        </DataArray>
        <DataArray type="Float32" Name="F1_Density_SG_co2gas_mod.xml" format="ascii">
118.125 116.584 151.43 141.3 435.612 437.878 226.381 231.647 473.927 476.203 385.675 385.664 550.177 541.369 106.312 107.959 426.772 434.301 349.643 356.549 349.151 357.929 106.127 106.143 391.967 390.959 106.138 106.138 106.129 106.13 106.068 106.137 233.874 225.671 106.138 106.138 106.138 106.138 106.138 84.282 84.2828 106.138 106.135 106.07 105.231 99.7465 99.7486 105.231 106.07 106.135 106.138 106.138 78.8681 106.138 106.138 106.138 106.136 106.099 106.132 106.028 105.54 101.362 104.861 87.6046 98.0582 
        </DataArray>
        <DataArray type="Float32" Name="F1_Temperature_SG_co2gas_mod.xml" format="ascii">
470.224 469.603 482.347 481.286 371.082 371.294 474.776 474.835 371.552 372.581 353.779 353.779 364.869 364.437 466.432 466.879 406.586 405.489 450.151 428.049 426.771 452.244 466.383 466.387 397.365 397.33 466.385 466.385 466.383 466.383 466.367 466.385 497.757 498.481 466.385 466.385 466.385 466.385 466.385 460.431 460.432 466.385 466.385 466.367 466.146 464.685 464.682 466.146 466.367 466.385 466.385 466.385 468.578 466.385 466.385 466.385 466.385 466.375 466.384 466.356 466.228 465.111 466.054 461.273 464.38 
        </DataArray>
        <DataArray type="Float32" Name="F1_Mass fraction_SG_co2gas_mod.xml" format="ascii">
1 1 1 1 1 1 1 1 1 1 1 1 1 1 1 1 1 1 1 1 1 1 1 1 1 1 1 1 1 1 1 1 1 1 1 1 1 1 1 1 1 1 1 1 1 1 1 1 1 1 1 1 1 1 1 1 1 1 1 1 1 1 1 1 1 
        </DataArray>
        <DataArray type="Float32" Name="Density_Mixture" format="ascii">
118.125 116.584 151.43 141.3 435.612 437.878 226.381 231.647 473.927 476.203 385.675 385.664 550.177 541.369 106.312 107.959 426.772 434.301 349.643 356.549 349.151 357.929 106.127 106.143 391.967 390.959 106.138 106.138 106.129 106.13 106.068 106.137 233.874 225.671 106.138 106.138 106.138 106.138 106.138 84.282 84.2828 106.138 106.135 106.07 105.231 99.7465 99.7486 105.231 106.07 106.135 106.138 106.138 78.8681 106.138 106.138 106.138 106.136 106.099 106.132 106.028 105.54 101.362 104.861 87.6046 98.0582 
        </DataArray>
        <DataArray type="Float32" Name="Pressure_Mixture" format="ascii">
7.14582e+06 7.03061e+06 9.67586e+06 8.94763e+06 2.24883e+07 2.26233e+07 1.46556e+07 1.50191e+07 2.45763e+07 2.47696e+07 1.88438e+07 1.88432e+07 2.81413e+07 2.76428e+07 6.28431e+06 6.4024e+06 2.42049e+07 2.45787e+07 2.18729e+07 2.11829e+07 2.06605e+07 2.25205e+07 6.2711e+06 6.27225e+06 2.1636e+07 2.15761e+07 6.27186e+06 6.27185e+06 6.27125e+06 6.27131e+06 6.26689e+06 6.27182e+06 1.59472e+07 1.53804e+07 6.27186e+06 6.27186e+06 6.27186e+06 6.27186e+06 6.27186e+06 4.72535e+06 4.72541e+06 6.27185e+06 6.27165e+06 6.26702e+06 6.2071e+06 5.8163e+06 5.81641e+06 6.20708e+06 6.26699e+06 6.27165e+06 6.27185e+06 6.27186e+06 4.45782e+06 6.27186e+06 6.27186e+06 6.27185e+06 6.27176e+06 6.26909e+06 6.27147e+06 6.26398e+06 6.22914e+06 5.93109e+06 6.18071e+06 4.95724e+06 5.69854e+06 
        </DataArray>
        <DataArray type="Float32" Name="Velocity_Mixture" NumberOfComponents="3" format="ascii">
32.8754 -1.51062 0 20.7224 4.98081 0 96.4836 -8.92353 0 79.7995 -4.29158 0 322.416 16.3595 0 322.748 -19.3027 0 215.071 -8.25037 0 220.417 11.3046 0 309.065 45.242 0 309.065 -45.4238 0 343.567 0.0877969 0 343.57 -0.0853124 0 287.004 -42.6827 0 288.58 45.3794 0 0.244634 -0.752796 0 4.26293 -2.07163 0 290 -63.5724 0 292.882 76.3113 0 277.969 -54.6498 0 277.72 27.1508 0 281.845 -17.974 0 271.042 77.9772 0 -0.376835 -0.327595 0 0.0156485 -0.00327929 0 296.842 -15.2287 0 296.621 16.6125 0 2.56431e-05 0 0 -0.000107701 6.12526e-05 0 -0.0197268 -0.00529022 0 -0.00499215 0.0189872 0 -0.140861 0.117815 0 -0.000763629 0.00110239 0 191.172 62.0279 0 209.244 -35.3488 0 0 0 0 0 0 0 0 0 0 0 0 0 0 0 0 24.7176 -0.782192 0 24.7206 0.786002 0 0 -3.22979e-05 0 0.00135754 -0.0010301 0 0.0349519 -0.0181294 0 0.521685 -0.163587 0 4.53697 -0.643208 0 4.55963 0.632048 0 0.542581 0.155909 0 0.0371118 0.0174978 0 0.00147744 0.00100603 0 5.03175e-06 3.39358e-05 0 0 0 0 65.4506 0.00477851 0 0 0 0 0 0 0 0.000664493 -9.03851e-06 0 0.00114071 0.000139489 0 0.0357461 0.00339356 0 0.0238475 -0.00067135 0 0.495332 -0.0120289 0 0.66029 0.0417208 0 6.98948 0.124928 0 5.67687 -0.110365 0 41.3452 -0.00339392 0 32.4934 -0.124063 0 
        </DataArray>
        <DataArray type="Float32" Name="gradRho" format="ascii">
11.2547 8.80665 32.0354 33.774 22.1874 22.5537 62.913 66.9152 37.2244 41.5331 34.6828 36.2619 17.4643 15.9223 2.60958 3.61153 32.2303 29.0086 72.4985 53.7235 55.5422 72.3807 0.633591 0.0600488 29.4873 26.2855 0.00020312 0.00277338 0.0239224 0.032339 0.0179268 0.00354401 56.7412 53.7084 5.96742e-06 6.91067e-06 1.19391e-06 3.36319e-07 2.79234e-07 0.828544 0.828822 1.63935e-05 0.000400955 0.00621216 0.0515261 0.23888 0.238971 0.0514719 0.0060921 0.000385167 1.35957e-05 1.29973e-07 0.780594 9.52256e-06 1.40251e-05 0.000452883 0.000586532 0.01447 0.0119068 0.174688 0.200304 1.37981 1.2603 3.97806 3.82111 
        </DataArray>
      </CellData>
    </Piece>
  </UnstructuredGrid>
</VTKFile>
