<?xml version="1.0"?>
<VTKFile type="UnstructuredGrid" version="0.1" byte_order="LittleEndian">
  <UnstructuredGrid>
    <Piece NumberOfPoints="50" NumberOfCells="65">
      <Points>
        <DataArray type="Float32" NumberOfComponents="3" format="ascii">
          0 5 0 0 -5 0 15 0.2 0 15 -0.2 0 35 0.2 0 35 -0.2 0 2.14286 4.31429 0 4.28571 3.62857 0 6.42857 2.94286 0 8.57143 2.25714 0 10.7143 1.57143 0 12.8571 0.885714 0 17.8571 0.2 0 20.7143 0.2 0 23.5714 0.2 0 26.4286 0.2 0 29.2857 0.2 0 32.1429 0.2 0 32.1429 -0.2 0 29.2857 -0.2 0 26.4286 -0.2 0 23.5714 -0.2 0 20.7143 -0.2 0 17.8571 -0.2 0 12.8571 -0.885714 0 10.7143 -1.57143 0 8.57143 -2.25714 0 6.42857 -2.94286 0 4.28571 -3.62857 0 2.14286 -4.31429 0 0 -2.5 0 0 -6.16307e-12 0 0 2.5 0 3.95974 -5.7158e-13 0 13.9286 -3.66374e-15 0 6.61813 2.81487e-12 0 2.86365 2.0434 0 2.86365 -2.0434 0 9.43036 1.987e-12 0 11.3926 2.79508e-14 0 4.83116 1.72297 0 4.83116 -1.72297 0 1.90629 -3.21031e-12 0 33.5714 0 0 16.4286 -1.80625e-18 0 25 6.93889e-18 0 19.2857 -6.93889e-18 0 30.7143 0 0 22.1429 0 0 27.8571 0 0 
        </DataArray>
      </Points>
      <Cells>
        <DataArray type="Int32" Name="connectivity" format="ascii">
          8 9 35 26 27 35 8 35 40 27 41 35 30 42 37 32 36 42 33 40 35 33 35 41 29 30 37 6 36 32 30 31 42 31 32 42 0 6 32 30 29 1 26 35 38 9 38 35 6 7 36 28 29 37 7 40 36 33 41 37 33 36 40 28 37 41 9 10 38 25 26 38 33 42 36 33 37 42 11 34 24 24 25 39 10 11 39 25 38 39 10 39 38 11 24 39 27 28 41 7 8 40 2 34 11 3 24 34 2 3 34 2 44 12 3 23 44 4 17 43 5 43 18 12 46 13 13 48 14 14 45 15 15 49 16 16 47 17 18 47 19 19 49 20 20 45 21 21 48 22 22 46 23 2 3 44 4 43 5 12 44 23 12 23 46 13 46 22 13 22 48 14 21 45 14 48 21 15 45 20 15 20 49 16 19 47 16 49 19 17 18 43 17 47 18 
        </DataArray>
        <DataArray type="Int32" Name="offsets" format="ascii">
          3 6 9 12 15 18 21 24 27 30 33 36 39 42 45 48 51 54 57 60 63 66 69 72 75 78 81 84 87 90 93 96 99 102 105 108 111 114 117 120 123 126 129 132 135 138 141 144 147 150 153 156 159 162 165 168 171 174 177 180 183 186 189 192 195 
        </DataArray>
        <DataArray type="UInt8" Name="types" format="ascii">
          5 5 5 5 5 5 5 5 5 5 5 5 5 5 5 5 5 5 5 5 5 5 5 5 5 5 5 5 5 5 5 5 5 5 5 5 5 5 5 5 5 5 5 5 5 5 5 5 5 5 5 5 5 5 5 5 5 5 5 5 5 5 5 5 5 
        </DataArray>
      </Cells>
      <CellData>
        <DataArray type="Float32" Name="F0_Alpha_SG_co2liq_mod.xml" format="ascii">
1.72682e-10 1.72682e-10 1.72676e-10 1.7268e-10 1.65996e-10 1.6612e-10 1.72531e-10 1.72529e-10 1.66185e-10 1.65838e-10 1.67752e-10 1.67751e-10 1.6485e-10 1.65111e-10 1.72682e-10 1.72682e-10 1.68873e-10 1.67743e-10 1.71532e-10 1.70924e-10 1.70836e-10 1.71889e-10 1.72682e-10 1.72682e-10 1.68651e-10 1.68633e-10 1.72682e-10 1.72682e-10 1.72682e-10 1.72682e-10 1.72682e-10 1.72682e-10 1.72688e-10 1.72619e-10 1.72682e-10 1.72682e-10 1.72682e-10 1.72682e-10 1.72682e-10 1.73112e-10 1.73112e-10 1.72682e-10 1.72682e-10 1.72682e-10 1.72684e-10 1.72735e-10 1.72735e-10 1.72684e-10 1.72682e-10 1.72682e-10 1.72682e-10 1.72682e-10 1.73177e-10 1.72682e-10 1.72682e-10 1.72682e-10 1.72682e-10 1.72682e-10 1.72682e-10 1.72682e-10 1.72683e-10 1.72714e-10 1.72686e-10 1.73018e-10 1.72761e-10 
        </DataArray>
        <DataArray type="Float32" Name="F0_Density_SG_co2liq_mod.xml" format="ascii">
5897.15 5897.14 5897.52 5897.24 6389.49 6381.92 5906.55 5906.68 6360.58 6380.08 6330.47 6330.49 6512.01 6494.98 5897.13 5897.13 6128.66 6195.97 5965.86 6001.36 6006.42 5944.05 5897.13 5897.13 6140.76 6141.6 5897.13 5897.13 5897.13 5897.13 5897.13 5897.13 5896.76 5901.07 5897.13 5897.13 5897.13 5897.13 5897.13 5868.54 5868.55 5897.13 5897.13 5897.13 5896.99 5893.76 5893.76 5896.99 5897.13 5897.13 5897.13 5897.13 5860.71 5897.13 5897.13 5897.13 5897.13 5897.13 5897.13 5897.12 5897.06 5895.09 5896.85 5875.07 5892.03 
        </DataArray>
        <DataArray type="Float32" Name="F0_Temperature_SG_co2liq_mod.xml" format="ascii">
41.7807 41.7807 41.7819 41.781 42.3735 42.3698 41.8092 41.8096 42.3588 42.3689 42.3422 42.3422 42.4254 42.4191 41.7807 41.7807 42.1863 42.2489 41.9526 42.0182 42.0267 41.9058 41.7807 41.7807 42.1985 42.1994 41.7807 41.7807 41.7807 41.7807 41.7807 41.7807 41.7795 41.7929 41.7807 41.7807 41.7807 41.7807 41.7807 41.6783 41.6783 41.7807 41.7807 41.7807 41.7802 41.7699 41.7699 41.7802 41.7807 41.7807 41.7807 41.7807 41.6448 41.7807 41.7807 41.7807 41.7807 41.7807 41.7807 41.7807 41.7805 41.7742 41.7798 41.7042 41.7643 
        </DataArray>
        <DataArray type="Float32" Name="F0_Mass fraction_SG_co2liq_mod.xml" format="ascii">
9.59344e-09 9.59418e-09 9.57806e-09 9.58992e-09 2.90399e-09 2.92713e-09 9.22334e-09 9.21848e-09 3.07997e-09 3.02209e-09 2.87569e-09 2.8756e-09 2.40751e-09 2.44581e-09 9.5944e-09 9.5944e-09 4.99847e-09 4.43284e-09 7.52318e-09 6.80152e-09 6.71286e-09 8.08717e-09 9.5944e-09 9.5944e-09 4.90008e-09 4.89542e-09 9.5944e-09 9.5944e-09 9.5944e-09 9.5944e-09 9.5944e-09 9.5944e-09 9.61005e-09 9.43393e-09 9.5944e-09 9.5944e-09 9.5944e-09 9.5944e-09 9.5944e-09 1.10487e-08 1.10485e-08 9.5944e-09 9.5944e-09 9.59451e-09 9.60037e-09 9.73904e-09 9.73922e-09 9.60047e-09 9.59451e-09 9.5944e-09 9.5944e-09 9.5944e-09 1.17664e-08 9.5944e-09 9.5944e-09 9.5944e-09 9.5944e-09 9.59444e-09 9.5944e-09 9.59467e-09 9.59717e-09 9.68127e-09 9.60608e-09 1.06634e-08 9.8162e-09 
        </DataArray>
        <DataArray type="Float32" Name="F1_Alpha_SG_co2gas_mod.xml" format="ascii">
1 1 1 1 1 1 1 1 1 1 1 1 1 1 1 1 1 1 1 1 1 1 1 1 1 1 1 1 1 1 1 1 1 1 1 1 1 1 1 1 1 1 1 1 1 1 1 1 1 1 1 1 1 1 1 1 1 1 1 1 1 1 1 1 1 
        </DataArray>
        <DataArray type="Float32" Name="F1_Density_SG_co2gas_mod.xml" format="ascii">
106.149 106.14 106.322 106.188 365.23 362.187 110.487 110.547 343.197 350.109 369.285 369.296 445.899 438.463 106.138 106.138 207.057 234.461 136.024 150.816 152.858 126.338 106.138 106.138 211.353 211.56 106.138 106.138 106.138 106.138 106.138 106.138 105.962 107.976 106.138 106.138 106.138 106.138 106.138 91.9494 91.9503 106.138 106.138 106.137 106.071 104.534 104.532 106.069 106.136 106.138 106.138 106.138 86.257 106.138 106.138 106.138 106.138 106.137 106.138 106.135 106.107 105.168 106.006 95.3252 103.697 
        </DataArray>
        <DataArray type="Float32" Name="F1_Temperature_SG_co2gas_mod.xml" format="ascii">
466.388 466.386 466.434 466.399 394.382 394.001 467.773 467.786 404.789 406.666 361.683 361.684 371.158 370.695 466.385 466.385 466.978 465.822 475.104 476.966 477.292 474.885 466.385 466.385 468.245 468.53 466.385 466.385 466.385 466.385 466.385 466.385 466.339 466.954 466.385 466.385 466.385 466.385 466.385 462.594 462.594 466.385 466.385 466.385 466.368 465.962 465.961 466.367 466.385 466.385 466.385 466.385 469.575 466.385 466.385 466.385 466.385 466.385 466.385 466.385 466.377 466.129 466.351 463.466 465.776 
        </DataArray>
        <DataArray type="Float32" Name="F1_Mass fraction_SG_co2gas_mod.xml" format="ascii">
1 1 1 1 1 1 1 1 1 1 1 1 1 1 1 1 1 1 1 1 1 1 1 1 1 1 1 1 1 1 1 1 1 1 1 1 1 1 1 1 1 1 1 1 1 1 1 1 1 1 1 1 1 1 1 1 1 1 1 1 1 1 1 1 1 
        </DataArray>
        <DataArray type="Float32" Name="Density_Mixture" format="ascii">
106.149 106.14 106.322 106.188 365.23 362.187 110.487 110.547 343.197 350.109 369.285 369.296 445.899 438.463 106.138 106.138 207.057 234.461 136.024 150.816 152.858 126.338 106.138 106.138 211.353 211.56 106.138 106.138 106.138 106.138 106.138 106.138 105.962 107.976 106.138 106.138 106.138 106.138 106.138 91.9494 91.9503 106.138 106.138 106.137 106.071 104.534 104.532 106.069 106.137 106.138 106.138 106.138 86.257 106.138 106.138 106.138 106.138 106.137 106.138 106.135 106.107 105.168 106.006 95.3252 103.697 
        </DataArray>
        <DataArray type="Float32" Name="Pressure_Mixture" format="ascii">
6.27263e+06 6.27204e+06 6.28504e+06 6.27547e+06 1.99422e+07 1.97487e+07 6.58736e+06 6.59158e+06 1.92021e+07 1.97018e+07 1.84273e+07 1.8428e+07 2.30451e+07 2.26167e+07 6.27186e+06 6.27186e+06 1.30955e+07 1.49068e+07 8.45885e+06 9.51566e+06 9.6637e+06 7.78941e+06 6.27186e+06 6.27186e+06 1.34243e+07 1.34471e+07 6.27186e+06 6.27186e+06 6.27186e+06 6.27186e+06 6.27186e+06 6.27186e+06 6.25929e+06 6.40471e+06 6.27186e+06 6.27186e+06 6.27186e+06 6.27186e+06 6.27186e+06 5.26459e+06 5.26466e+06 6.27186e+06 6.27186e+06 6.27177e+06 6.26706e+06 6.15728e+06 6.15713e+06 6.26698e+06 6.27177e+06 6.27186e+06 6.27186e+06 6.27186e+06 4.9709e+06 6.27186e+06 6.27186e+06 6.27186e+06 6.27186e+06 6.27183e+06 6.27186e+06 6.27164e+06 6.26963e+06 6.20259e+06 6.26247e+06 5.50243e+06 6.09815e+06 
        </DataArray>
        <DataArray type="Float32" Name="Velocity_Mixture" NumberOfComponents="3" format="ascii">
0.0271103 0.00123915 0 0.00566468 0.00045037 0 0.367585 0.17993 0 0.151218 -0.430371 0 296.013 -0.414528 0 297.385 2.25793 0 11.0732 -2.479 0 11.3086 2.39978 0 288.896 44.6537 0 286.158 -39.2631 0 338.988 0.193267 0 338.982 -0.196365 0 305.359 -41.7627 0 304.003 50.1081 0 0.000138619 0.000197904 0 -0.000140327 9.02231e-05 0 184.505 -23.2824 0 179.54 58.4671 0 70.6863 -11.296 0 105.036 -14.5813 0 103.452 12.2137 0 39.6957 5.80759 0 -6.27234e-05 -2.35262e-05 0 1.90256e-05 0 0 195.144 -23.5512 0 196.578 25.9143 0 0 0 0 0 0 0 0 0 0 0 0 0 0 0 0 0 0 0 -0.230945 -0.369254 0 4.40369 0.539525 0 0 0 0 0 0 0 0 0 0 0 0 0 0 0 0 10.8347 -1.22137 0 10.8346 1.22274 0 0 0 0 0 -8.68401e-07 0 0.000490686 -0.000662001 0 0.0309125 -0.0261649 0 0.837861 -0.368255 0 0.889961 0.351744 0 0.0337912 0.0254452 0 0.00056 0.000664055 0 0 3.92674e-06 0 0 0 0 0 0 0 49.1122 0.00145696 0 0 0 0 0 0 0 0 0 0 0 0 0 0.00027384 4.46658e-05 0 0.000106685 0 0 0.012287 -0.000420024 0 0.0232245 0.00341541 0 0.880289 0.0957856 0 0.579402 -0.0171648 0 14.8582 -0.00298341 0 11.1989 -0.280985 0 
        </DataArray>
        <DataArray type="Float32" Name="gradRho" format="ascii">
0.051772 0.0142357 1.03436 1.27185 51.3476 51.5129 17.0762 16.3093 58.7151 71.8704 2.81674 4.9366 22.6149 22.4912 0.000683087 0.00298659 61.1271 57.696 30.0177 35.5588 34.4615 36.7455 5.53385e-06 3.26473e-06 70.0508 71.7516 1.87667e-09 6.68286e-07 7.11576e-07 5.23706e-06 7.71919e-06 1.69612e-07 7.10648 10.0089 0 0 0 1.59953e-11 1.59953e-11 0.884883 0.88522 2.76616e-08 5.29884e-06 0.000318849 0.0102297 0.118021 0.117576 0.00983621 0.000297895 4.52393e-06 2.3439e-08 0 0.820762 3.11619e-09 6.91985e-09 1.01275e-06 1.77173e-06 0.000217064 0.00014132 0.0100198 0.0133795 0.354409 0.299408 3.25473 3.01057 
        </DataArray>
      </CellData>
    </Piece>
  </UnstructuredGrid>
</VTKFile>
