<?xml version="1.0"?>
<VTKFile type="UnstructuredGrid" version="0.1" byte_order="LittleEndian">
  <UnstructuredGrid>
    <Piece NumberOfPoints="50" NumberOfCells="65">
      <Points>
        <DataArray type="Float32" NumberOfComponents="3" format="ascii">
          0 5 0 0 -5 0 15 0.2 0 15 -0.2 0 35 0.2 0 35 -0.2 0 2.14286 4.31429 0 4.28571 3.62857 0 6.42857 2.94286 0 8.57143 2.25714 0 10.7143 1.57143 0 12.8571 0.885714 0 17.8571 0.2 0 20.7143 0.2 0 23.5714 0.2 0 26.4286 0.2 0 29.2857 0.2 0 32.1429 0.2 0 32.1429 -0.2 0 29.2857 -0.2 0 26.4286 -0.2 0 23.5714 -0.2 0 20.7143 -0.2 0 17.8571 -0.2 0 12.8571 -0.885714 0 10.7143 -1.57143 0 8.57143 -2.25714 0 6.42857 -2.94286 0 4.28571 -3.62857 0 2.14286 -4.31429 0 0 -2.5 0 0 -6.16307e-12 0 0 2.5 0 3.95974 -5.7158e-13 0 13.9286 -3.66374e-15 0 6.61813 2.81487e-12 0 2.86365 2.0434 0 2.86365 -2.0434 0 9.43036 1.987e-12 0 11.3926 2.79508e-14 0 4.83116 1.72297 0 4.83116 -1.72297 0 1.90629 -3.21031e-12 0 33.5714 0 0 16.4286 -1.80625e-18 0 25 6.93889e-18 0 19.2857 -6.93889e-18 0 30.7143 0 0 22.1429 0 0 27.8571 0 0 
        </DataArray>
      </Points>
      <Cells>
        <DataArray type="Int32" Name="connectivity" format="ascii">
          8 9 35 26 27 35 8 35 40 27 41 35 30 42 37 32 36 42 33 40 35 33 35 41 29 30 37 6 36 32 30 31 42 31 32 42 0 6 32 30 29 1 26 35 38 9 38 35 6 7 36 28 29 37 7 40 36 33 41 37 33 36 40 28 37 41 9 10 38 25 26 38 33 42 36 33 37 42 11 34 24 24 25 39 10 11 39 25 38 39 10 39 38 11 24 39 27 28 41 7 8 40 2 34 11 3 24 34 2 3 34 2 44 12 3 23 44 4 17 43 5 43 18 12 46 13 13 48 14 14 45 15 15 49 16 16 47 17 18 47 19 19 49 20 20 45 21 21 48 22 22 46 23 2 3 44 4 43 5 12 44 23 12 23 46 13 46 22 13 22 48 14 21 45 14 48 21 15 45 20 15 20 49 16 19 47 16 49 19 17 18 43 17 47 18 
        </DataArray>
        <DataArray type="Int32" Name="offsets" format="ascii">
          3 6 9 12 15 18 21 24 27 30 33 36 39 42 45 48 51 54 57 60 63 66 69 72 75 78 81 84 87 90 93 96 99 102 105 108 111 114 117 120 123 126 129 132 135 138 141 144 147 150 153 156 159 162 165 168 171 174 177 180 183 186 189 192 195 
        </DataArray>
        <DataArray type="UInt8" Name="types" format="ascii">
          5 5 5 5 5 5 5 5 5 5 5 5 5 5 5 5 5 5 5 5 5 5 5 5 5 5 5 5 5 5 5 5 5 5 5 5 5 5 5 5 5 5 5 5 5 5 5 5 5 5 5 5 5 5 5 5 5 5 5 5 5 5 5 5 5 
        </DataArray>
      </Cells>
      <CellData>
        <DataArray type="Float32" Name="F0_Alpha_SG_co2liq_mod.xml" format="ascii">
1.72682e-10 1.72682e-10 1.72682e-10 1.72683e-10 1.66533e-10 1.66624e-10 1.7265e-10 1.72649e-10 1.67116e-10 1.66859e-10 1.67816e-10 1.67815e-10 1.65513e-10 1.65731e-10 1.72682e-10 1.72682e-10 1.70485e-10 1.69574e-10 1.72221e-10 1.71902e-10 1.71846e-10 1.72547e-10 1.72682e-10 1.72682e-10 1.70072e-10 1.70064e-10 1.72682e-10 1.72682e-10 1.72682e-10 1.72682e-10 1.72682e-10 1.72682e-10 1.72692e-10 1.72675e-10 1.72682e-10 1.72682e-10 1.72682e-10 1.72682e-10 1.72682e-10 1.73057e-10 1.73057e-10 1.72682e-10 1.72682e-10 1.72682e-10 1.72683e-10 1.72715e-10 1.72715e-10 1.72683e-10 1.72682e-10 1.72682e-10 1.72682e-10 1.72682e-10 1.73131e-10 1.72682e-10 1.72682e-10 1.72682e-10 1.72682e-10 1.72682e-10 1.72682e-10 1.72682e-10 1.72682e-10 1.727e-10 1.72684e-10 1.72962e-10 1.72736e-10 
        </DataArray>
        <DataArray type="Float32" Name="F0_Density_SG_co2liq_mod.xml" format="ascii">
5897.13 5897.13 5897.11 5897.07 6336.33 6331.13 5899.15 5899.24 6285.73 6298.93 6318.71 6318.74 6459.42 6445.22 5897.13 5897.13 6030.62 6083.84 5925.58 5944.3 5947.65 5905.28 5897.13 5897.13 6049.9 6050.47 5897.13 5897.13 5897.13 5897.13 5897.13 5897.13 5896.5 5897.57 5897.13 5897.13 5897.13 5897.13 5897.13 5872.39 5872.4 5897.13 5897.13 5897.13 5897.07 5895.02 5895.01 5897.07 5897.13 5897.13 5897.13 5897.13 5864.21 5897.13 5897.13 5897.13 5897.13 5897.13 5897.13 5897.13 5897.11 5895.97 5897 5878.88 5893.64 
        </DataArray>
        <DataArray type="Float32" Name="F0_Temperature_SG_co2liq_mod.xml" format="ascii">
41.7807 41.7807 41.7806 41.7805 42.3455 42.3426 41.787 41.7873 42.3149 42.3233 42.3353 42.3354 42.405 42.3991 41.7807 41.7807 42.0647 42.1361 41.8612 41.9064 41.9139 41.8055 41.7807 41.7807 42.0923 42.0931 41.7807 41.7807 41.7807 41.7807 41.7807 41.7807 41.7787 41.7821 41.7807 41.7807 41.7807 41.7807 41.7807 41.6938 41.6938 41.7807 41.7807 41.7807 41.7805 41.774 41.7739 41.7805 41.7807 41.7807 41.7807 41.7807 41.6601 41.7807 41.7807 41.7807 41.7807 41.7807 41.7807 41.7807 41.7806 41.777 41.7803 41.7186 41.7695 
        </DataArray>
        <DataArray type="Float32" Name="F0_Mass fraction_SG_co2liq_mod.xml" format="ascii">
9.59452e-09 9.59439e-09 9.59541e-09 9.59699e-09 3.18302e-09 3.20074e-09 9.51052e-09 9.50685e-09 3.4797e-09 3.43633e-09 2.94718e-09 2.94709e-09 2.56013e-09 2.59666e-09 9.5944e-09 9.59442e-09 6.23094e-09 5.52499e-09 8.56918e-09 8.04395e-09 7.95556e-09 9.28311e-09 9.5944e-09 9.5944e-09 6.05142e-09 6.04108e-09 9.5944e-09 9.5944e-09 9.5944e-09 9.5944e-09 9.5944e-09 9.5944e-09 9.62099e-09 9.57603e-09 9.5944e-09 9.5944e-09 9.5944e-09 9.5944e-09 9.5944e-09 1.08175e-08 1.08174e-08 9.5944e-09 9.5944e-09 9.59443e-09 9.59688e-09 9.68439e-09 9.68475e-09 9.59695e-09 9.59443e-09 9.5944e-09 9.5944e-09 9.5944e-09 1.1508e-08 9.5944e-09 9.5944e-09 9.5944e-09 9.5944e-09 9.59441e-09 9.5944e-09 9.59448e-09 9.59539e-09 9.64346e-09 9.59991e-09 1.04556e-08 9.74483e-09 
        </DataArray>
        <DataArray type="Float32" Name="F1_Alpha_SG_co2gas_mod.xml" format="ascii">
1 1 1 1 1 1 1 1 1 1 1 1 1 1 1 1 1 1 1 1 1 1 1 1 1 1 1 1 1 1 1 1 1 1 1 1 1 1 1 1 1 1 1 1 1 1 1 1 1 1 1 1 1 1 1 1 1 1 1 1 1 1 1 1 1 
        </DataArray>
        <DataArray type="Float32" Name="F1_Density_SG_co2gas_mod.xml" format="ascii">
106.136 106.138 106.126 106.109 331.511 329.585 107.091 107.133 301.879 305.86 359.795 359.806 417.604 411.366 106.138 106.138 165.004 186.727 119.091 127.032 128.473 109.763 106.138 106.138 170.029 170.328 106.138 106.138 106.138 106.138 106.138 106.138 105.839 106.345 106.138 106.138 106.138 106.138 106.138 93.946 93.9466 106.138 106.138 106.137 106.11 105.134 105.13 106.109 106.137 106.138 106.138 106.138 88.2234 106.138 106.138 106.138 106.138 106.138 106.138 106.137 106.127 105.588 106.076 97.2509 104.47 
        </DataArray>
        <DataArray type="Float32" Name="F1_Temperature_SG_co2gas_mod.xml" format="ascii">
466.385 466.385 466.382 466.378 406.049 405.604 466.651 466.663 415.889 418.23 365.385 365.387 374.354 373.987 466.385 466.385 471.467 472.184 469.96 472.722 473.008 468.199 466.385 466.385 479.862 479.668 466.385 466.385 466.385 466.385 466.385 466.385 466.307 466.442 466.385 466.385 466.385 466.385 466.385 463.146 463.146 466.385 466.385 466.385 466.378 466.121 466.12 466.378 466.385 466.385 466.385 466.385 469.483 466.385 466.385 466.385 466.385 466.385 466.385 466.385 466.382 466.24 466.369 463.999 465.965 
        </DataArray>
        <DataArray type="Float32" Name="F1_Mass fraction_SG_co2gas_mod.xml" format="ascii">
1 1 1 1 1 1 1 1 1 1 1 1 1 1 1 1 1 1 1 1 1 1 1 1 1 1 1 1 1 1 1 1 1 1 1 1 1 1 1 1 1 1 1 1 1 1 1 1 1 1 1 1 1 1 1 1 1 1 1 1 1 1 1 1 1 
        </DataArray>
        <DataArray type="Float32" Name="Density_Mixture" format="ascii">
106.136 106.138 106.126 106.109 331.511 329.585 107.091 107.133 301.879 305.86 359.795 359.806 417.604 411.366 106.138 106.138 165.004 186.727 119.091 127.032 128.473 109.763 106.138 106.138 170.029 170.328 106.138 106.138 106.138 106.138 106.138 106.138 105.839 106.345 106.138 106.138 106.138 106.138 106.138 93.946 93.9466 106.138 106.138 106.137 106.11 105.134 105.13 106.109 106.137 106.138 106.138 106.138 88.2234 106.138 106.138 106.138 106.138 106.138 106.138 106.137 106.127 105.588 106.076 97.2509 104.47 
        </DataArray>
        <DataArray type="Float32" Name="Pressure_Mixture" format="ascii">
6.27176e+06 6.27187e+06 6.27104e+06 6.26977e+06 1.85786e+07 1.84443e+07 6.34024e+06 6.34326e+06 1.72683e+07 1.76112e+07 1.81237e+07 1.81243e+07 2.17195e+07 2.136e+07 6.27186e+06 6.27184e+06 1.0363e+07 1.18633e+07 7.20696e+06 7.79733e+06 7.90118e+06 6.54511e+06 6.27186e+06 6.27186e+06 1.0912e+07 1.0928e+07 6.27186e+06 6.27186e+06 6.27186e+06 6.27186e+06 6.27186e+06 6.27186e+06 6.25052e+06 6.28672e+06 6.27186e+06 6.27186e+06 6.27186e+06 6.27186e+06 6.27186e+06 5.40565e+06 5.4057e+06 6.27186e+06 6.27186e+06 6.27184e+06 6.26986e+06 6.20014e+06 6.19985e+06 6.26981e+06 6.27183e+06 6.27186e+06 6.27186e+06 6.27186e+06 5.10324e+06 6.27186e+06 6.27186e+06 6.27186e+06 6.27186e+06 6.27185e+06 6.27186e+06 6.27179e+06 6.27106e+06 6.23258e+06 6.26743e+06 5.63897e+06 6.15307e+06 
        </DataArray>
        <DataArray type="Float32" Name="Velocity_Mixture" NumberOfComponents="3" format="ascii">
-0.00351575 0.000210636 0 0.00017809 0.000311568 0 -0.00869561 0.0914087 0 -0.0370138 -0.114105 0 279.199 -4.85643 0 280.22 6.83493 0 2.28959 -0.722298 0 2.40652 0.753473 0 269.436 45.8189 0 266.283 -38.7599 0 335.399 0.316674 0 335.393 -0.319464 0 306.025 -39.8235 0 303.111 51.676 0 0.000180919 0.000192678 0 -0.000471681 0.000347528 0 129.222 -11.5275 0 125.712 44.5123 0 31.5884 -7.03148 0 53.8501 -11.296 0 53.1143 9.85687 0 6.30063 -6.63486 0 7.94582e-06 0 0 4.93765e-06 0 0 142.118 -21.3416 0 143.135 23.06 0 0 0 0 0 0 0 0 0 0 0 0 0 0 0 0 0 0 0 -0.398034 -0.288527 0 0.134387 -0.144896 0 0 0 0 0 0 0 0 0 0 0 0 0 0 0 0 8.6229 -1.30664 0 8.62264 1.30726 0 0 0 0 0 0 0 0.000107996 -0.000205631 0 0.0121168 -0.0133598 0 0.492551 -0.286002 0 0.530934 0.273505 0 0.0135106 0.0131352 0 0.000129561 0.000208925 0 0 0 0 0 0 0 0 0 0 44.2687 0.000602189 0 0 0 0 0 0 0 0 0 0 0 0 0 4.33746e-05 0 0 4.26648e-06 0 0 0.00350869 -0.000128125 0 0.0076756 0.00130799 0 0.446363 0.061347 0 0.264894 -0.00863754 0 10.5631 -0.00195241 0 7.64693 -0.214816 0 
        </DataArray>
        <DataArray type="Float32" Name="gradRho" format="ascii">
0.00309358 0.00845681 0.237414 0.336288 60.3393 60.3186 8.41017 7.85415 63.6902 73.854 19.6445 20.9879 26.3816 25.8488 0.000102476 0.000410072 55.3774 53.251 17.3528 22.8669 21.5738 22.0046 6.83279e-05 1.89272e-05 67.6343 68.7697 0 8.10782e-08 4.19334e-07 1.17973e-06 4.14273e-06 2.75982e-09 1.34387 4.48607 0 0 0 0 0 0.900503 0.900737 3.07289e-09 9.849e-07 0.000111061 0.00578794 0.0969317 0.0958135 0.00547349 0.000102101 8.51421e-07 2.50578e-09 0 0.825094 0 6.58132e-10 1.1131e-07 2.30007e-07 5.2587e-05 3.01312e-05 0.00364292 0.00525149 0.214513 0.173893 2.84443 2.59039 
        </DataArray>
      </CellData>
    </Piece>
  </UnstructuredGrid>
</VTKFile>
