<?xml version="1.0"?>
<VTKFile type="UnstructuredGrid" version="0.1" byte_order="LittleEndian">
  <UnstructuredGrid>
    <Piece NumberOfPoints="50" NumberOfCells="65">
      <Points>
        <DataArray type="Float32" NumberOfComponents="3" format="ascii">
          0 5 0 0 -5 0 15 0.2 0 15 -0.2 0 35 0.2 0 35 -0.2 0 2.14286 4.31429 0 4.28571 3.62857 0 6.42857 2.94286 0 8.57143 2.25714 0 10.7143 1.57143 0 12.8571 0.885714 0 17.8571 0.2 0 20.7143 0.2 0 23.5714 0.2 0 26.4286 0.2 0 29.2857 0.2 0 32.1429 0.2 0 32.1429 -0.2 0 29.2857 -0.2 0 26.4286 -0.2 0 23.5714 -0.2 0 20.7143 -0.2 0 17.8571 -0.2 0 12.8571 -0.885714 0 10.7143 -1.57143 0 8.57143 -2.25714 0 6.42857 -2.94286 0 4.28571 -3.62857 0 2.14286 -4.31429 0 0 -2.5 0 0 -6.16307e-12 0 0 2.5 0 3.95974 -5.7158e-13 0 13.9286 -3.66374e-15 0 6.61813 2.81487e-12 0 2.86365 2.0434 0 2.86365 -2.0434 0 9.43036 1.987e-12 0 11.3926 2.79508e-14 0 4.83116 1.72297 0 4.83116 -1.72297 0 1.90629 -3.21031e-12 0 33.5714 0 0 16.4286 -1.80625e-18 0 25 6.93889e-18 0 19.2857 -6.93889e-18 0 30.7143 0 0 22.1429 0 0 27.8571 0 0 
        </DataArray>
      </Points>
      <Cells>
        <DataArray type="Int32" Name="connectivity" format="ascii">
          8 9 35 26 27 35 8 35 40 27 41 35 30 42 37 32 36 42 33 40 35 33 35 41 29 30 37 6 36 32 30 31 42 31 32 42 0 6 32 30 29 1 26 35 38 9 38 35 6 7 36 28 29 37 7 40 36 33 41 37 33 36 40 28 37 41 9 10 38 25 26 38 33 42 36 33 37 42 11 34 24 24 25 39 10 11 39 25 38 39 10 39 38 11 24 39 27 28 41 7 8 40 2 34 11 3 24 34 2 3 34 2 44 12 3 23 44 4 17 43 5 43 18 12 46 13 13 48 14 14 45 15 15 49 16 16 47 17 18 47 19 19 49 20 20 45 21 21 48 22 22 46 23 2 3 44 4 43 5 12 44 23 12 23 46 13 46 22 13 22 48 14 21 45 14 48 21 15 45 20 15 20 49 16 19 47 16 49 19 17 18 43 17 47 18 
        </DataArray>
        <DataArray type="Int32" Name="offsets" format="ascii">
          3 6 9 12 15 18 21 24 27 30 33 36 39 42 45 48 51 54 57 60 63 66 69 72 75 78 81 84 87 90 93 96 99 102 105 108 111 114 117 120 123 126 129 132 135 138 141 144 147 150 153 156 159 162 165 168 171 174 177 180 183 186 189 192 195 
        </DataArray>
        <DataArray type="UInt8" Name="types" format="ascii">
          5 5 5 5 5 5 5 5 5 5 5 5 5 5 5 5 5 5 5 5 5 5 5 5 5 5 5 5 5 5 5 5 5 5 5 5 5 5 5 5 5 5 5 5 5 5 5 5 5 5 5 5 5 5 5 5 5 5 5 5 5 5 5 5 5 
        </DataArray>
      </Cells>
      <CellData>
        <DataArray type="Float32" Name="F0_Alpha_SG_co2liq_mod.xml" format="ascii">
1.7252e-10 1.7256e-10 1.71817e-10 1.72111e-10 1.65243e-10 1.6518e-10 1.69227e-10 1.69048e-10 1.6422e-10 1.6405e-10 1.67747e-10 1.67748e-10 1.62665e-10 1.62964e-10 1.72682e-10 1.72662e-10 1.6365e-10 1.63176e-10 1.64707e-10 1.65403e-10 1.65601e-10 1.64378e-10 1.72682e-10 1.72682e-10 1.65301e-10 1.6534e-10 1.72682e-10 1.72682e-10 1.72682e-10 1.72682e-10 1.72683e-10 1.72682e-10 1.69147e-10 1.69219e-10 1.72682e-10 1.72682e-10 1.72682e-10 1.72682e-10 1.72682e-10 1.73278e-10 1.73278e-10 1.72682e-10 1.72682e-10 1.72683e-10 1.72702e-10 1.72851e-10 1.7285e-10 1.72703e-10 1.72683e-10 1.72682e-10 1.72682e-10 1.72682e-10 1.73319e-10 1.72682e-10 1.72682e-10 1.72682e-10 1.72682e-10 1.72683e-10 1.72682e-10 1.72684e-10 1.72695e-10 1.72806e-10 1.72712e-10 1.73194e-10 1.72896e-10 
        </DataArray>
        <DataArray type="Float32" Name="F0_Density_SG_co2liq_mod.xml" format="ascii">
5907.3 5904.79 5948.97 5931.27 6478.17 6482.12 6098.96 6109.13 6545.5 6555 6345.72 6345.7 6679.67 6659.71 5897.13 5898.39 6503.84 6534.3 6373.55 6361.08 6349.51 6392.05 5897.12 5897.12 6415.93 6413.46 5897.13 5897.13 5897.13 5897.13 5897.09 5897.13 6097.13 6091.75 5897.13 5897.13 5897.13 5897.13 5897.13 5856.62 5856.62 5897.13 5897.13 5897.05 5895.82 5886.23 5886.26 5895.82 5897.05 5897.13 5897.13 5897.13 5849.73 5897.13 5897.13 5897.13 5897.13 5897.09 5897.12 5896.99 5896.3 5889.15 5895.22 5862.81 5883.18 
        </DataArray>
        <DataArray type="Float32" Name="F0_Temperature_SG_co2liq_mod.xml" format="ascii">
41.8114 41.804 41.9169 41.8755 42.4126 42.4141 42.1539 42.1654 42.437 42.4401 42.3508 42.3507 42.475 42.4701 41.7807 41.7846 42.4224 42.4332 42.3655 42.3591 42.3528 42.3748 41.7806 41.7806 42.3861 42.385 41.7807 41.7807 41.7807 41.7807 41.7805 41.7807 42.1518 42.1455 41.7807 41.7807 41.7807 41.7807 41.7807 41.6259 41.6259 41.7807 41.7807 41.7804 41.7765 41.7448 41.7449 41.7765 41.7804 41.7807 41.7807 41.7807 41.5919 41.7807 41.7807 41.7807 41.7807 41.7805 41.7807 41.7802 41.7781 41.7547 41.7746 41.654 41.7341 
        </DataArray>
        <DataArray type="Float32" Name="F0_Mass fraction_SG_co2liq_mod.xml" format="ascii">
9.19311e-09 9.28735e-09 7.93376e-09 8.4323e-09 2.51011e-09 2.50105e-09 5.43949e-09 5.33286e-09 2.35673e-09 2.34129e-09 2.76934e-09 2.76942e-09 2.04219e-09 2.07369e-09 9.59461e-09 9.54183e-09 2.70662e-09 2.62647e-09 3.47435e-09 3.33762e-09 3.38214e-09 3.40573e-09 9.59489e-09 9.59475e-09 2.89479e-09 2.90269e-09 9.5944e-09 9.5944e-09 9.59458e-09 9.59449e-09 9.59608e-09 9.59441e-09 5.57163e-09 5.65612e-09 9.5944e-09 9.5944e-09 9.5944e-09 9.5944e-09 9.5944e-09 1.18641e-08 1.18639e-08 9.5944e-09 9.59451e-09 9.59774e-09 9.64984e-09 1.00845e-08 1.00831e-08 9.64995e-09 9.59777e-09 9.59452e-09 9.5944e-09 9.5944e-09 1.26678e-08 9.5944e-09 9.5944e-09 9.59441e-09 9.59445e-09 9.5962e-09 9.59463e-09 9.60014e-09 9.62935e-09 9.94659e-09 9.67592e-09 1.14184e-08 1.02369e-08 
        </DataArray>
        <DataArray type="Float32" Name="F1_Alpha_SG_co2gas_mod.xml" format="ascii">
1 1 1 1 1 1 1 1 1 1 1 1 1 1 1 1 1 1 1 1 1 1 1 1 1 1 1 1 1 1 1 1 1 1 1 1 1 1 1 1 1 1 1 1 1 1 1 1 1 1 1 1 1 1 1 1 1 1 1 1 1 1 1 1 1 
        </DataArray>
        <DataArray type="Float32" Name="F1_Density_SG_co2gas_mod.xml" format="ascii">
110.858 109.712 128.834 121.063 426.463 428.105 189.744 193.655 456.099 459.298 384.38 384.368 532.05 523.362 106.135 106.733 393.241 405.96 302.147 315.237 310.893 308.513 106.132 106.134 366.369 365.317 106.138 106.138 106.136 106.137 106.119 106.138 185.1 182.252 106.138 106.138 106.138 106.138 106.138 85.5372 85.5388 106.138 106.136 106.1 105.517 100.891 100.906 105.516 106.1 106.136 106.138 106.138 80.0354 106.138 106.138 106.138 106.137 106.117 106.135 106.073 105.746 102.315 105.228 88.9268 99.3641 
        </DataArray>
        <DataArray type="Float32" Name="F1_Temperature_SG_co2gas_mod.xml" format="ascii">
467.755 467.39 473.873 472.643 374.254 374.428 479.926 480.229 375.596 376.557 354.55 354.55 365.363 364.899 466.385 466.544 417.247 417.206 467.392 440.973 440.525 468.352 466.384 466.384 405.88 405.856 466.385 466.385 466.385 466.385 466.38 466.385 490.076 492.097 466.385 466.385 466.385 466.385 466.385 460.787 460.788 466.385 466.385 466.375 466.222 464.992 464.994 466.221 466.375 466.385 466.385 466.385 468.903 466.385 466.385 466.385 466.385 466.38 466.385 466.368 466.282 465.368 466.149 461.658 464.707 
        </DataArray>
        <DataArray type="Float32" Name="F1_Mass fraction_SG_co2gas_mod.xml" format="ascii">
1 1 1 1 1 1 1 1 1 1 1 1 1 1 1 1 1 1 1 1 1 1 1 1 1 1 1 1 1 1 1 1 1 1 1 1 1 1 1 1 1 1 1 1 1 1 1 1 1 1 1 1 1 1 1 1 1 1 1 1 1 1 1 1 1 
        </DataArray>
        <DataArray type="Float32" Name="Density_Mixture" format="ascii">
110.858 109.712 128.834 121.063 426.463 428.105 189.744 193.655 456.099 459.298 384.38 384.368 532.05 523.362 106.135 106.733 393.241 405.96 302.147 315.237 310.893 308.513 106.132 106.134 366.369 365.317 106.138 106.138 106.136 106.137 106.119 106.138 185.1 182.252 106.138 106.138 106.138 106.138 106.138 85.5372 85.5388 106.138 106.136 106.1 105.517 100.891 100.906 105.516 106.1 106.136 106.138 106.138 80.0354 106.138 106.138 106.138 106.137 106.117 106.135 106.073 105.746 102.315 105.228 88.9268 99.3641 
        </DataArray>
        <DataArray type="Float32" Name="Pressure_Mixture" format="ascii">
6.61211e+06 6.52882e+06 7.94196e+06 7.38793e+06 2.21929e+07 2.22926e+07 1.22817e+07 1.25616e+07 2.38853e+07 2.41229e+07 1.88204e+07 1.88198e+07 2.7223e+07 2.67289e+07 6.27169e+06 6.31445e+06 2.28397e+07 2.36047e+07 1.95346e+07 1.9215e+07 1.89178e+07 2.00076e+07 6.27146e+06 6.27158e+06 2.06163e+07 2.05533e+07 6.27186e+06 6.27186e+06 6.27171e+06 6.27179e+06 6.27051e+06 6.27185e+06 1.22311e+07 1.20826e+07 6.27186e+06 6.27186e+06 6.27186e+06 6.27186e+06 6.27186e+06 4.81333e+06 4.81344e+06 6.27186e+06 6.27177e+06 6.26917e+06 6.2275e+06 5.89771e+06 5.89873e+06 6.22741e+06 6.26915e+06 6.27177e+06 6.27186e+06 6.27186e+06 4.54068e+06 6.27186e+06 6.27186e+06 6.27185e+06 6.27182e+06 6.27041e+06 6.27168e+06 6.26724e+06 6.24383e+06 5.99897e+06 6.20688e+06 5.05037e+06 5.79094e+06 
        </DataArray>
        <DataArray type="Float32" Name="Velocity_Mixture" NumberOfComponents="3" format="ascii">
12.8696 -0.394099 0 6.89305 1.68179 0 50.1544 -4.29206 0 35.6086 -10.0343 0 321.067 12.078 0 321.747 -14.6053 0 170.566 -7.36432 0 176.098 8.17969 0 309.475 44.306 0 309.074 -43.9815 0 343.341 0.0998841 0 343.344 -0.0977769 0 291.497 -43.0724 0 293.01 45.7125 0 -0.0398477 -0.316325 0 1.34114 -0.738259 0 284.271 -59.3563 0 286.373 76.0426 0 259.713 -46.7962 0 263.627 15.819 0 266.285 -8.74033 0 250.739 72.1198 0 -0.107707 -0.0897624 0 -0.00169829 -0.00518467 0 289.443 -17.4497 0 289.59 18.965 0 0 0 0 -3.66787e-06 2.71347e-05 0 -0.00467528 -0.00135713 0 0.000707461 0.00679343 0 -0.0380505 0.030952 0 -0.000126791 0.000201565 0 129.845 44.7605 0 156.899 -19.0672 0 0 0 0 0 0 0 0 0 0 0 0 0 0 0 0 21.5191 -0.861578 0 21.5215 0.866498 0 0 -1.10831e-05 0 0.000563498 -0.000507962 0 0.0186893 -0.0113813 0 0.343021 -0.127714 0 3.48803 -0.609301 0 3.52746 0.592734 0 0.359153 0.122561 0 0.0200138 0.0110193 0 0.000623069 0.000500853 0 0 1.27376e-05 0 0 0 0 62.8518 0.00581557 0 0 0 0 0 0 0 0.000223041 0 0 0.000425478 5.52167e-05 0 0.0175316 0.00191104 0 0.0110475 -0.000324671 0 0.289545 -0.00752762 0 0.402288 0.030135 0 5.1491 0.159843 0 4.0973 -0.0866441 0 35.7995 -0.00472843 0 28.1441 -0.183044 0 
        </DataArray>
        <DataArray type="Float32" Name="gradRho" format="ascii">
5.85032 3.85421 21.9537 22.7218 21.2576 21.8638 59.0114 61.6491 38.1044 44.5534 29.2286 30.3749 17.176 15.8802 0.886938 1.41206 40.4801 36.883 74.0667 57.2182 58.7819 77.3716 0.206467 0.000382133 38.9587 36.9725 3.76626e-05 0.000368142 0.00656839 0.00812461 0.00619203 0.000852843 51.9099 49.0843 8.73726e-07 9.73067e-07 1.28592e-07 9.86748e-08 8.22355e-08 0.840539 0.841083 7.23829e-06 0.000209422 0.0040789 0.0404917 0.214356 0.215438 0.0402582 0.00397195 0.000199956 5.93006e-06 3.42323e-08 0.79333 2.82489e-06 4.41794e-06 0.000186708 0.000250535 0.00788083 0.00632461 0.1172 0.136642 1.15571 1.04736 3.97877 3.80054 
        </DataArray>
      </CellData>
    </Piece>
  </UnstructuredGrid>
</VTKFile>
