<?xml version="1.0"?>
<VTKFile type="UnstructuredGrid" version="0.1" byte_order="LittleEndian">
  <UnstructuredGrid>
    <Piece NumberOfPoints="50" NumberOfCells="65">
      <Points>
        <DataArray type="Float32" NumberOfComponents="3" format="ascii">
          0 5 0 0 -5 0 15 0.2 0 15 -0.2 0 35 0.2 0 35 -0.2 0 2.14286 4.31429 0 4.28571 3.62857 0 6.42857 2.94286 0 8.57143 2.25714 0 10.7143 1.57143 0 12.8571 0.885714 0 17.8571 0.2 0 20.7143 0.2 0 23.5714 0.2 0 26.4286 0.2 0 29.2857 0.2 0 32.1429 0.2 0 32.1429 -0.2 0 29.2857 -0.2 0 26.4286 -0.2 0 23.5714 -0.2 0 20.7143 -0.2 0 17.8571 -0.2 0 12.8571 -0.885714 0 10.7143 -1.57143 0 8.57143 -2.25714 0 6.42857 -2.94286 0 4.28571 -3.62857 0 2.14286 -4.31429 0 0 -2.5 0 0 -6.16307e-12 0 0 2.5 0 3.95974 -5.7158e-13 0 13.9286 -3.66374e-15 0 6.61813 2.81487e-12 0 2.86365 2.0434 0 2.86365 -2.0434 0 9.43036 1.987e-12 0 11.3926 2.79508e-14 0 4.83116 1.72297 0 4.83116 -1.72297 0 1.90629 -3.21031e-12 0 33.5714 0 0 16.4286 -1.80625e-18 0 25 6.93889e-18 0 19.2857 -6.93889e-18 0 30.7143 0 0 22.1429 0 0 27.8571 0 0 
        </DataArray>
      </Points>
      <Cells>
        <DataArray type="Int32" Name="connectivity" format="ascii">
          8 9 35 26 27 35 8 35 40 27 41 35 30 42 37 32 36 42 33 40 35 33 35 41 29 30 37 6 36 32 30 31 42 31 32 42 0 6 32 30 29 1 26 35 38 9 38 35 6 7 36 28 29 37 7 40 36 33 41 37 33 36 40 28 37 41 9 10 38 25 26 38 33 42 36 33 37 42 11 34 24 24 25 39 10 11 39 25 38 39 10 39 38 11 24 39 27 28 41 7 8 40 2 34 11 3 24 34 2 3 34 2 44 12 3 23 44 4 17 43 5 43 18 12 46 13 13 48 14 14 45 15 15 49 16 16 47 17 18 47 19 19 49 20 20 45 21 21 48 22 22 46 23 2 3 44 4 43 5 12 44 23 12 23 46 13 46 22 13 22 48 14 21 45 14 48 21 15 45 20 15 20 49 16 19 47 16 49 19 17 18 43 17 47 18 
        </DataArray>
        <DataArray type="Int32" Name="offsets" format="ascii">
          3 6 9 12 15 18 21 24 27 30 33 36 39 42 45 48 51 54 57 60 63 66 69 72 75 78 81 84 87 90 93 96 99 102 105 108 111 114 117 120 123 126 129 132 135 138 141 144 147 150 153 156 159 162 165 168 171 174 177 180 183 186 189 192 195 
        </DataArray>
        <DataArray type="UInt8" Name="types" format="ascii">
          5 5 5 5 5 5 5 5 5 5 5 5 5 5 5 5 5 5 5 5 5 5 5 5 5 5 5 5 5 5 5 5 5 5 5 5 5 5 5 5 5 5 5 5 5 5 5 5 5 5 5 5 5 5 5 5 5 5 5 5 5 5 5 5 5 
        </DataArray>
      </Cells>
      <CellData>
        <DataArray type="Float32" Name="F0_Alpha_SG_co2liq_mod.xml" format="ascii">
1.7257e-10 1.72602e-10 1.72049e-10 1.72292e-10 1.65265e-10 1.65215e-10 1.69733e-10 1.69563e-10 1.64323e-10 1.64146e-10 1.67743e-10 1.67744e-10 1.62844e-10 1.63143e-10 1.72682e-10 1.72669e-10 1.639e-10 1.63324e-10 1.65246e-10 1.65794e-10 1.65941e-10 1.65002e-10 1.72682e-10 1.72682e-10 1.65481e-10 1.65517e-10 1.72682e-10 1.72682e-10 1.72682e-10 1.72682e-10 1.72682e-10 1.72682e-10 1.69926e-10 1.69901e-10 1.72682e-10 1.72682e-10 1.72682e-10 1.72682e-10 1.72682e-10 1.73266e-10 1.73266e-10 1.72682e-10 1.72682e-10 1.72683e-10 1.727e-10 1.72839e-10 1.72838e-10 1.727e-10 1.72683e-10 1.72682e-10 1.72682e-10 1.72682e-10 1.73309e-10 1.72682e-10 1.72682e-10 1.72682e-10 1.72682e-10 1.72683e-10 1.72682e-10 1.72684e-10 1.72693e-10 1.72796e-10 1.72708e-10 1.73181e-10 1.72883e-10 
        </DataArray>
        <DataArray type="Float32" Name="F0_Density_SG_co2liq_mod.xml" format="ascii">
5904.18 5902.16 5935.56 5920.75 6473.97 6477.03 6069.44 6079.07 6534.64 6544.91 6345.28 6345.25 6666.31 6646.41 5897.1 5897.96 6481.12 6517.48 6336.38 6331.43 6322.94 6350.62 5897.12 5897.12 6399 6396.7 5897.13 5897.13 5897.13 5897.13 5897.11 5897.13 6054.46 6054.63 5897.13 5897.13 5897.13 5897.13 5897.13 5857.47 5857.48 5897.13 5897.13 5897.07 5896 5887.02 5887.05 5896 5897.07 5897.13 5897.13 5897.13 5850.51 5897.13 5897.13 5897.13 5897.13 5897.1 5897.13 5897.02 5896.43 5889.8 5895.45 5863.72 5884.08 
        </DataArray>
        <DataArray type="Float32" Name="F0_Temperature_SG_co2liq_mod.xml" format="ascii">
41.8022 41.7962 41.8859 41.8487 42.4109 42.4121 42.1182 42.1303 42.4333 42.4368 42.3505 42.3505 42.4717 42.4667 41.7806 41.7833 42.4138 42.4273 42.3456 42.3427 42.3378 42.3534 41.7806 41.7806 42.3782 42.3771 41.7807 41.7807 41.7807 41.7807 41.7806 41.7807 42.0985 42.0987 41.7807 41.7807 41.7807 41.7807 41.7807 41.6299 41.6299 41.7807 41.7807 41.7805 41.7771 41.7475 41.7476 41.7771 41.7805 41.7807 41.7807 41.7807 41.5959 41.7807 41.7807 41.7807 41.7807 41.7806 41.7807 41.7803 41.7785 41.7569 41.7753 41.658 41.7373 
        </DataArray>
        <DataArray type="Float32" Name="F0_Mass fraction_SG_co2liq_mod.xml" format="ascii">
9.3107e-09 9.38922e-09 8.28437e-09 8.74404e-09 2.52891e-09 2.52187e-09 5.79308e-09 5.67757e-09 2.39112e-09 2.37272e-09 2.7733e-09 2.77339e-09 2.06596e-09 2.09813e-09 9.59555e-09 9.55987e-09 2.79661e-09 2.69701e-09 3.67632e-09 3.50066e-09 3.53646e-09 3.61229e-09 9.59476e-09 9.59477e-09 2.97445e-09 2.98231e-09 9.5944e-09 9.5944e-09 9.5945e-09 9.59443e-09 9.59542e-09 9.5944e-09 6.06745e-09 6.09222e-09 9.5944e-09 9.5944e-09 9.5944e-09 9.5944e-09 9.5944e-09 1.18e-08 1.17997e-08 9.5944e-09 9.59448e-09 9.59706e-09 9.64231e-09 1.00468e-08 1.00452e-08 9.64242e-09 9.59709e-09 9.59448e-09 9.5944e-09 9.5944e-09 1.25986e-08 9.5944e-09 9.5944e-09 9.5944e-09 9.59444e-09 9.5958e-09 9.59457e-09 9.59909e-09 9.62409e-09 9.91658e-09 9.66599e-09 1.13569e-08 1.01917e-08 
        </DataArray>
        <DataArray type="Float32" Name="F1_Alpha_SG_co2gas_mod.xml" format="ascii">
1 1 1 1 1 1 1 1 1 1 1 1 1 1 1 1 1 1 1 1 1 1 1 1 1 1 1 1 1 1 1 1 1 1 1 1 1 1 1 1 1 1 1 1 1 1 1 1 1 1 1 1 1 1 1 1 1 1 1 1 1 1 1 1 1 
        </DataArray>
        <DataArray type="Float32" Name="F1_Density_SG_co2gas_mod.xml" format="ascii">
109.432 108.5 123.269 116.662 423.075 424.33 177.83 181.554 449.076 452.782 383.795 383.783 525.453 516.8 106.125 106.528 379.837 394.682 284.813 299.862 296.69 290.083 106.134 106.134 356.002 355.013 106.138 106.138 106.137 106.137 106.126 106.138 169.563 168.853 106.138 106.138 106.138 106.138 106.138 86.0087 86.0106 106.138 106.137 106.108 105.601 101.276 101.293 105.6 106.107 106.137 106.138 106.138 80.4809 106.138 106.138 106.138 106.137 106.122 106.136 106.085 105.804 102.63 105.338 89.4155 99.812 
        </DataArray>
        <DataArray type="Float32" Name="F1_Temperature_SG_co2gas_mod.xml" format="ascii">
467.318 467.033 471.792 470.533 375.522 375.67 480.19 480.586 377.279 378.122 354.884 354.884 365.601 365.122 466.382 466.489 421.553 421.729 472.657 445.993 445.647 472.806 466.384 466.384 409.324 409.32 466.385 466.385 466.385 466.385 466.382 466.385 486.433 488.671 466.385 466.385 466.385 466.385 466.385 460.921 460.922 466.385 466.385 466.377 466.244 465.096 465.098 466.243 466.377 466.385 466.385 466.385 469.007 466.385 466.385 466.385 466.385 466.381 466.385 466.371 466.297 465.453 466.177 461.799 464.819 
        </DataArray>
        <DataArray type="Float32" Name="F1_Mass fraction_SG_co2gas_mod.xml" format="ascii">
1 1 1 1 1 1 1 1 1 1 1 1 1 1 1 1 1 1 1 1 1 1 1 1 1 1 1 1 1 1 1 1 1 1 1 1 1 1 1 1 1 1 1 1 1 1 1 1 1 1 1 1 1 1 1 1 1 1 1 1 1 1 1 1 1 
        </DataArray>
        <DataArray type="Float32" Name="Density_Mixture" format="ascii">
109.432 108.5 123.269 116.662 423.075 424.33 177.83 181.554 449.076 452.782 383.795 383.783 525.453 516.8 106.125 106.528 379.837 394.682 284.813 299.862 296.69 290.083 106.134 106.134 356.002 355.013 106.138 106.138 106.137 106.137 106.126 106.138 169.563 168.853 106.138 106.138 106.138 106.138 106.138 86.0087 86.0106 106.138 106.137 106.108 105.601 101.276 101.293 105.6 106.107 106.137 106.138 106.138 80.4809 106.138 106.138 106.138 106.137 106.122 106.136 106.085 105.804 102.63 105.338 89.4155 99.812 
        </DataArray>
        <DataArray type="Float32" Name="Pressure_Mixture" format="ascii">
6.50874e+06 6.44131e+06 7.52357e+06 7.0516e+06 2.20872e+07 2.21644e+07 1.14617e+07 1.17307e+07 2.36131e+07 2.38705e+07 1.88089e+07 1.88083e+07 2.68925e+07 2.63993e+07 6.27093e+06 6.29977e+06 2.22676e+07 2.31825e+07 1.85799e+07 1.84523e+07 1.82329e+07 1.89463e+07 6.27157e+06 6.27156e+06 2.01851e+07 2.01264e+07 6.27186e+06 6.27186e+06 6.27178e+06 6.27183e+06 6.27104e+06 6.27185e+06 1.10407e+07 1.10454e+07 6.27186e+06 6.27186e+06 6.27186e+06 6.27186e+06 6.27186e+06 4.8464e+06 4.84654e+06 6.27186e+06 6.27179e+06 6.26972e+06 6.23349e+06 5.9251e+06 5.92625e+06 6.23341e+06 6.26969e+06 6.27179e+06 6.27186e+06 6.27186e+06 4.57209e+06 6.27186e+06 6.27186e+06 6.27185e+06 6.27183e+06 6.27073e+06 6.27172e+06 6.26809e+06 6.24803e+06 6.02142e+06 6.21473e+06 5.08482e+06 5.82264e+06 
        </DataArray>
        <DataArray type="Float32" Name="Velocity_Mixture" NumberOfComponents="3" format="ascii">
8.9238 -0.231268 0 4.5151 1.10289 0 37.7068 -3.10288 0 25.2721 -9.53194 0 320.317 10.8666 0 321.133 -13.0722 0 152.879 -7.18894 0 158.576 7.56506 0 309.355 44.0675 0 308.763 -43.5729 0 343.226 0.104486 0 343.228 -0.102568 0 293.004 -43.2683 0 294.495 45.8583 0 -0.0473466 -0.217145 0 0.868418 -0.495869 0 281.253 -57.5637 0 282.993 75.7887 0 250.455 -43.4223 0 256.712 11.5322 0 258.774 -5.82975 0 239.859 69.1419 0 -0.0667575 -0.0547756 0 -0.00382469 -0.00354973 0 285.951 -18.3008 0 286.234 19.8154 0 0 0 0 1.14861e-05 1.18706e-05 0 -0.00267526 -0.000797082 0 0.000907883 0.00449786 0 -0.0230763 0.0185924 0 -5.90008e-05 9.98461e-05 0 106.826 37.6144 0 136.143 -13.9047 0 0 0 0 0 0 0 0 0 0 0 0 0 0 0 0 20.4446 -0.891161 0 20.4468 0.896174 0 0 -4.03315e-06 0 0.000399823 -0.000387019 0 0.0147178 -0.00950589 0 0.292374 -0.115946 0 3.15882 -0.595787 0 3.20522 0.574202 0 0.306883 0.111272 0 0.0158141 0.00921588 0 0.000445515 0.000382721 0 0 6.51278e-06 0 0 0 0 61.884 0.0058383 0 0 0 0 0 0 0 0.000142502 0 0 0.000288546 3.57188e-05 0 0.0133578 0.00152774 0 0.00822709 -0.000245024 0 0.235648 -0.00627777 0 0.332962 0.0264941 0 4.58092 0.167481 0 3.61315 -0.0783722 0 33.8418 -0.00564201 0 26.5932 -0.216065 0 
        </DataArray>
        <DataArray type="Float32" Name="gradRho" format="ascii">
4.45909 2.73908 18.6046 19.0983 21.727 22.4461 56.717 58.7016 38.7686 46.1877 27.2821 28.1596 17.157 15.9888 0.58498 0.982715 43.5026 39.7682 73.3225 57.7141 59.255 77.9379 0.135199 0.0038552 42.4298 40.9591 1.98134e-05 0.000128598 0.00401602 0.00478019 0.00408841 0.000493934 49.2206 46.5677 4.0425e-07 4.47386e-07 5.73292e-08 6.28528e-08 5.25901e-08 0.84437 0.845016 5.56317e-06 0.000162911 0.00346916 0.0370124 0.205091 0.206463 0.0367546 0.00336868 0.000155588 4.64335e-06 2.1162e-08 0.797093 1.89925e-06 2.85624e-06 0.000132661 0.000180638 0.00623998 0.00495655 0.100371 0.117816 1.07716 0.973088 3.96613 3.7803 
        </DataArray>
      </CellData>
    </Piece>
  </UnstructuredGrid>
</VTKFile>
