<?xml version="1.0"?>
<VTKFile type="UnstructuredGrid" version="0.1" byte_order="LittleEndian">
  <UnstructuredGrid>
    <Piece NumberOfPoints="50" NumberOfCells="65">
      <Points>
        <DataArray type="Float32" NumberOfComponents="3" format="ascii">
          0 5 0 0 -5 0 15 0.2 0 15 -0.2 0 35 0.2 0 35 -0.2 0 2.14286 4.31429 0 4.28571 3.62857 0 6.42857 2.94286 0 8.57143 2.25714 0 10.7143 1.57143 0 12.8571 0.885714 0 17.8571 0.2 0 20.7143 0.2 0 23.5714 0.2 0 26.4286 0.2 0 29.2857 0.2 0 32.1429 0.2 0 32.1429 -0.2 0 29.2857 -0.2 0 26.4286 -0.2 0 23.5714 -0.2 0 20.7143 -0.2 0 17.8571 -0.2 0 12.8571 -0.885714 0 10.7143 -1.57143 0 8.57143 -2.25714 0 6.42857 -2.94286 0 4.28571 -3.62857 0 2.14286 -4.31429 0 0 -2.5 0 0 -6.16307e-12 0 0 2.5 0 3.95974 -5.7158e-13 0 13.9286 -3.66374e-15 0 6.61813 2.81487e-12 0 2.86365 2.0434 0 2.86365 -2.0434 0 9.43036 1.987e-12 0 11.3926 2.79508e-14 0 4.83116 1.72297 0 4.83116 -1.72297 0 1.90629 -3.21031e-12 0 33.5714 0 0 16.4286 -1.80625e-18 0 25 6.93889e-18 0 19.2857 -6.93889e-18 0 30.7143 0 0 22.1429 0 0 27.8571 0 0 
        </DataArray>
      </Points>
      <Cells>
        <DataArray type="Int32" Name="connectivity" format="ascii">
          8 9 35 26 27 35 8 35 40 27 41 35 30 42 37 32 36 42 33 40 35 33 35 41 29 30 37 6 36 32 30 31 42 31 32 42 0 6 32 30 29 1 26 35 38 9 38 35 6 7 36 28 29 37 7 40 36 33 41 37 33 36 40 28 37 41 9 10 38 25 26 38 33 42 36 33 37 42 11 34 24 24 25 39 10 11 39 25 38 39 10 39 38 11 24 39 27 28 41 7 8 40 2 34 11 3 24 34 2 3 34 2 44 12 3 23 44 4 17 43 5 43 18 12 46 13 13 48 14 14 45 15 15 49 16 16 47 17 18 47 19 19 49 20 20 45 21 21 48 22 22 46 23 2 3 44 4 43 5 12 44 23 12 23 46 13 46 22 13 22 48 14 21 45 14 48 21 15 45 20 15 20 49 16 19 47 16 49 19 17 18 43 17 47 18 
        </DataArray>
        <DataArray type="Int32" Name="offsets" format="ascii">
          3 6 9 12 15 18 21 24 27 30 33 36 39 42 45 48 51 54 57 60 63 66 69 72 75 78 81 84 87 90 93 96 99 102 105 108 111 114 117 120 123 126 129 132 135 138 141 144 147 150 153 156 159 162 165 168 171 174 177 180 183 186 189 192 195 
        </DataArray>
        <DataArray type="UInt8" Name="types" format="ascii">
          5 5 5 5 5 5 5 5 5 5 5 5 5 5 5 5 5 5 5 5 5 5 5 5 5 5 5 5 5 5 5 5 5 5 5 5 5 5 5 5 5 5 5 5 5 5 5 5 5 5 5 5 5 5 5 5 5 5 5 5 5 5 5 5 5 
        </DataArray>
      </Cells>
      <CellData>
        <DataArray type="Float32" Name="F0_Alpha_SG_co2liq_mod.xml" format="ascii">
1.72659e-10 1.72669e-10 1.72519e-10 1.7261e-10 1.65387e-10 1.65408e-10 1.71368e-10 1.71289e-10 1.64802e-10 1.64579e-10 1.6773e-10 1.67731e-10 1.6355e-10 1.63847e-10 1.72682e-10 1.7268e-10 1.65234e-10 1.64318e-10 1.67838e-10 1.67568e-10 1.67566e-10 1.67947e-10 1.72682e-10 1.72682e-10 1.66381e-10 1.66383e-10 1.72682e-10 1.72682e-10 1.72682e-10 1.72682e-10 1.72682e-10 1.72682e-10 1.7188e-10 1.71702e-10 1.72682e-10 1.72682e-10 1.72682e-10 1.72682e-10 1.72682e-10 1.73217e-10 1.73217e-10 1.72682e-10 1.72682e-10 1.72682e-10 1.72691e-10 1.72795e-10 1.72794e-10 1.72691e-10 1.72682e-10 1.72682e-10 1.72682e-10 1.72682e-10 1.73266e-10 1.72682e-10 1.72682e-10 1.72682e-10 1.72682e-10 1.72682e-10 1.72682e-10 1.72683e-10 1.72687e-10 1.7276e-10 1.72697e-10 1.73127e-10 1.72833e-10 
        </DataArray>
        <DataArray type="Float32" Name="F0_Density_SG_co2liq_mod.xml" format="ascii">
5898.59 5897.96 5907.35 5901.66 6454.03 6452.62 5975.22 5979.69 6485.44 6499.86 6342.56 6342.53 6613 6593.4 5897.11 5897.26 6372.36 6429.18 6175.85 6207.52 6207.69 6171.38 5897.13 5897.13 6319.55 6319.31 5897.13 5897.13 5897.13 5897.13 5897.13 5897.13 5944.66 5954.7 5897.13 5897.13 5897.13 5897.13 5897.13 5861.1 5861.1 5897.13 5897.13 5897.11 5896.53 5889.87 5889.9 5896.53 5897.11 5897.13 5897.13 5897.13 5853.86 5897.13 5897.13 5897.13 5897.13 5897.12 5897.13 5897.08 5896.79 5892.11 5896.16 5867.53 5887.39 
        </DataArray>
        <DataArray type="Float32" Name="F0_Temperature_SG_co2liq_mod.xml" format="ascii">
41.7852 41.7833 41.8116 41.7947 42.4028 42.4022 41.971 41.9795 42.4154 42.4209 42.349 42.349 42.4577 42.452 41.7806 41.7811 42.3649 42.3921 42.2315 42.2584 42.2585 42.2275 41.7807 41.7807 42.3358 42.3357 41.7807 41.7807 41.7807 41.7807 41.7807 41.7807 41.9072 41.9294 41.7807 41.7807 41.7807 41.7807 41.7807 41.6465 41.6465 41.7807 41.7807 41.7806 41.7788 41.7571 41.7572 41.7788 41.7806 41.7807 41.7807 41.7807 41.6126 41.7807 41.7807 41.7807 41.7807 41.7806 41.7807 41.7805 41.7796 41.7646 41.7776 41.6741 41.7487 
        </DataArray>
        <DataArray type="Float32" Name="F0_Mass fraction_SG_co2liq_mod.xml" format="ascii">
9.53361e-09 9.55969e-09 9.19105e-09 9.40987e-09 2.61869e-09 2.62268e-09 7.32388e-09 7.23307e-09 2.55975e-09 2.52445e-09 2.79508e-09 2.79518e-09 2.16898e-09 2.20404e-09 9.59509e-09 9.5889e-09 3.28706e-09 3.07625e-09 4.76047e-09 4.33775e-09 4.33586e-09 4.7736e-09 9.59447e-09 9.59451e-09 3.40009e-09 3.4019e-09 9.5944e-09 9.5944e-09 9.59441e-09 9.59439e-09 9.59451e-09 9.5944e-09 8.06864e-09 7.8261e-09 9.5944e-09 9.5944e-09 9.5944e-09 9.5944e-09 9.5944e-09 1.15381e-08 1.15378e-08 9.5944e-09 9.59442e-09 9.5954e-09 9.61976e-09 9.91344e-09 9.91215e-09 9.61988e-09 9.59541e-09 9.59442e-09 9.5944e-09 9.5944e-09 1.23116e-08 9.5944e-09 9.5944e-09 9.5944e-09 9.59441e-09 9.59487e-09 9.59445e-09 9.59634e-09 9.60892e-09 9.81195e-09 9.63526e-09 1.11105e-08 1.0031e-08 
        </DataArray>
        <DataArray type="Float32" Name="F1_Alpha_SG_co2gas_mod.xml" format="ascii">
1 1 1 1 1 1 1 1 1 1 1 1 1 1 1 1 1 1 1 1 1 1 1 1 1 1 1 1 1 1 1 1 1 1 1 1 1 1 1 1 1 1 1 1 1 1 1 1 1 1 1 1 1 1 1 1 1 1 1 1 1 1 1 1 1 
        </DataArray>
        <DataArray type="Float32" Name="F1_Density_SG_co2gas_mod.xml" format="ascii">
106.827 106.53 110.883 108.257 407.614 406.954 139.811 141.607 417.546 423.751 380.612 380.598 498.646 490.15 106.13 106.2 320.325 343.415 217.74 239.798 239.907 217.124 106.137 106.137 309.242 309.07 106.138 106.138 106.138 106.138 106.137 106.138 126.634 130.644 106.138 106.138 106.138 106.138 106.138 87.9906 87.9928 106.138 106.138 106.127 105.853 102.663 102.676 105.852 106.126 106.138 106.138 106.138 82.3834 106.138 106.138 106.138 106.138 106.132 106.137 106.116 105.975 103.743 105.68 91.4297 101.439 
        </DataArray>
        <DataArray type="Float32" Name="F1_Temperature_SG_co2gas_mod.xml" format="ascii">
466.57 466.489 467.761 467.005 381.214 381.223 476.194 476.687 385.285 385.572 356.581 356.581 366.908 366.384 466.383 466.402 440.213 439.791 484.537 464.308 464.234 482.095 466.385 466.385 425.6 425.698 466.385 466.385 466.385 466.385 466.385 466.385 474.815 476.661 466.385 466.385 466.385 466.385 466.385 461.482 461.483 466.385 466.385 466.382 466.31 465.466 465.468 466.31 466.382 466.385 466.385 466.385 469.344 466.385 466.385 466.385 466.385 466.384 466.385 466.38 466.342 465.751 466.266 462.374 465.222 
        </DataArray>
        <DataArray type="Float32" Name="F1_Mass fraction_SG_co2gas_mod.xml" format="ascii">
1 1 1 1 1 1 1 1 1 1 1 1 1 1 1 1 1 1 1 1 1 1 1 1 1 1 1 1 1 1 1 1 1 1 1 1 1 1 1 1 1 1 1 1 1 1 1 1 1 1 1 1 1 1 1 1 1 1 1 1 1 1 1 1 1 
        </DataArray>
        <DataArray type="Float32" Name="Density_Mixture" format="ascii">
106.827 106.53 110.883 108.257 407.614 406.954 139.811 141.607 417.546 423.751 380.612 380.598 498.646 490.15 106.13 106.2 320.325 343.415 217.74 239.798 239.907 217.124 106.137 106.137 309.242 309.07 106.138 106.138 106.138 106.138 106.137 106.138 126.634 130.644 106.138 106.138 106.138 106.138 106.138 87.9906 87.9928 106.138 106.138 106.127 105.853 102.663 102.676 105.852 106.126 106.138 106.138 106.138 82.3834 106.138 106.138 106.138 106.138 106.132 106.137 106.116 105.975 103.743 105.68 91.4297 101.439 
        </DataArray>
        <DataArray type="Float32" Name="Pressure_Mixture" format="ascii">
6.32119e+06 6.29992e+06 6.61391e+06 6.42449e+06 2.15831e+07 2.15473e+07 8.74106e+06 8.87484e+06 2.23764e+07 2.27397e+07 1.8739e+07 1.87382e+07 2.55697e+07 2.50817e+07 6.2713e+06 6.27629e+06 1.95042e+07 2.0953e+07 1.43698e+07 1.52138e+07 1.52185e+07 1.425e+07 6.2718e+06 6.27177e+06 1.81453e+07 1.81391e+07 6.27186e+06 6.27186e+06 6.27185e+06 6.27186e+06 6.27177e+06 6.27186e+06 7.80849e+06 8.11865e+06 6.27186e+06 6.27186e+06 6.27186e+06 6.27186e+06 6.27186e+06 4.98564e+06 4.9858e+06 6.27186e+06 6.27184e+06 6.27106e+06 6.2515e+06 6.02385e+06 6.0248e+06 6.2514e+06 6.27104e+06 6.27184e+06 6.27186e+06 6.27186e+06 4.70513e+06 6.27186e+06 6.27186e+06 6.27186e+06 6.27185e+06 6.27148e+06 6.27182e+06 6.2703e+06 6.26019e+06 6.10084e+06 6.23913e+06 5.22692e+06 5.93791e+06 
        </DataArray>
        <DataArray type="Float32" Name="Velocity_Mixture" NumberOfComponents="3" format="ascii">
1.8206 -0.0110901 0 0.737822 0.169395 0 9.93476 -0.348809 0 5.20152 -4.9724 0 315.604 6.57796 0 316.895 -7.69302 0 82.6442 -6.66131 0 86.8731 6.00336 0 307.11 43.5983 0 305.545 -42.2041 0 342.488 0.124149 0 342.489 -0.123416 0 298.449 -43.8535 0 299.606 46.6893 0 -0.0177644 -0.0371708 0 0.132091 -0.0854657 0 261.978 -47.9808 0 261.201 73.3047 0 196.665 -28.2452 0 217.639 -2.28464 0 217.092 3.56413 0 175.582 50.7058 0 -0.00793807 -0.00608487 0 -0.00166965 -0.000348567 0 266.066 -20.7005 0 266.984 23.3538 0 0 0 0 0 0 0 -0.000200262 -5.81233e-05 0 0.000252538 0.000539343 0 -0.00247683 0.00197863 0 0 0 0 36.6433 11.2567 0 61.7955 -0.520388 0 0 0 0 0 0 0 0 0 0 0 0 0 0 0 0 16.5435 -1.01209 0 16.5445 1.01605 0 0 0 0 7.8011e-05 -0.000118659 0 0.00521606 -0.00429176 0 0.14638 -0.0749417 0 2.0731 -0.52941 0 2.13742 0.505123 0 0.155421 0.0721127 0 0.00569234 0.00419051 0 9.28139e-05 0.000116114 0 0 0 0 0 0 0 57.7963 0.004432 0 0 0 0 0 0 0 5.27663e-06 0 0 4.12864e-05 0 0 0.00410111 0.000561481 0 0.0022714 -7.41306e-05 0 0.0958639 -0.00281102 0 0.146635 0.014745 0 2.75524 0.167383 0 2.07835 -0.0502556 0 26.3665 -0.00668843 0 20.6115 -0.316336 0 
        </DataArray>
        <DataArray type="Float32" Name="gradRho" format="ascii">
1.27059 0.562698 8.30102 8.35293 28.353 29.3833 44.0616 44.3015 43.8716 55.2607 18.7541 18.3039 17.682 17.141 0.0966753 0.202706 54.8241 50.6446 62.7969 56.085 56.6919 70.6259 0.0213721 0.00249976 55.5806 55.835 1.25509e-06 2.37995e-05 0.000445045 0.000516913 0.000598385 4.05506e-05 33.9325 32.9363 1.57904e-08 1.71515e-08 1.81337e-09 6.27339e-09 5.36785e-09 0.858391 0.859123 1.1276e-06 5.44142e-05 0.00170128 0.0251047 0.170141 0.171794 0.0247354 0.00163094 5.09672e-05 9.62879e-07 1.75513e-09 0.808576 2.27642e-07 3.69722e-07 2.9527e-05 4.34933e-05 0.0022479 0.00169889 0.0505004 0.0612426 0.780985 0.694357 3.83368 3.62151 
        </DataArray>
      </CellData>
    </Piece>
  </UnstructuredGrid>
</VTKFile>
