<?xml version="1.0"?>
<VTKFile type="UnstructuredGrid" version="0.1" byte_order="LittleEndian">
  <UnstructuredGrid>
    <Piece NumberOfPoints="50" NumberOfCells="65">
      <Points>
        <DataArray type="Float32" NumberOfComponents="3" format="ascii">
          0 5 0 0 -5 0 15 0.2 0 15 -0.2 0 35 0.2 0 35 -0.2 0 2.14286 4.31429 0 4.28571 3.62857 0 6.42857 2.94286 0 8.57143 2.25714 0 10.7143 1.57143 0 12.8571 0.885714 0 17.8571 0.2 0 20.7143 0.2 0 23.5714 0.2 0 26.4286 0.2 0 29.2857 0.2 0 32.1429 0.2 0 32.1429 -0.2 0 29.2857 -0.2 0 26.4286 -0.2 0 23.5714 -0.2 0 20.7143 -0.2 0 17.8571 -0.2 0 12.8571 -0.885714 0 10.7143 -1.57143 0 8.57143 -2.25714 0 6.42857 -2.94286 0 4.28571 -3.62857 0 2.14286 -4.31429 0 0 -2.5 0 0 -6.16307e-12 0 0 2.5 0 3.95974 -5.7158e-13 0 13.9286 -3.66374e-15 0 6.61813 2.81487e-12 0 2.86365 2.0434 0 2.86365 -2.0434 0 9.43036 1.987e-12 0 11.3926 2.79508e-14 0 4.83116 1.72297 0 4.83116 -1.72297 0 1.90629 -3.21031e-12 0 33.5714 0 0 16.4286 -1.80625e-18 0 25 6.93889e-18 0 19.2857 -6.93889e-18 0 30.7143 0 0 22.1429 0 0 27.8571 0 0 
        </DataArray>
      </Points>
      <Cells>
        <DataArray type="Int32" Name="connectivity" format="ascii">
          8 9 35 26 27 35 8 35 40 27 41 35 30 42 37 32 36 42 33 40 35 33 35 41 29 30 37 6 36 32 30 31 42 31 32 42 0 6 32 30 29 1 26 35 38 9 38 35 6 7 36 28 29 37 7 40 36 33 41 37 33 36 40 28 37 41 9 10 38 25 26 38 33 42 36 33 37 42 11 34 24 24 25 39 10 11 39 25 38 39 10 39 38 11 24 39 27 28 41 7 8 40 2 34 11 3 24 34 2 3 34 2 44 12 3 23 44 4 17 43 5 43 18 12 46 13 13 48 14 14 45 15 15 49 16 16 47 17 18 47 19 19 49 20 20 45 21 21 48 22 22 46 23 2 3 44 4 43 5 12 44 23 12 23 46 13 46 22 13 22 48 14 21 45 14 48 21 15 45 20 15 20 49 16 19 47 16 49 19 17 18 43 17 47 18 
        </DataArray>
        <DataArray type="Int32" Name="offsets" format="ascii">
          3 6 9 12 15 18 21 24 27 30 33 36 39 42 45 48 51 54 57 60 63 66 69 72 75 78 81 84 87 90 93 96 99 102 105 108 111 114 117 120 123 126 129 132 135 138 141 144 147 150 153 156 159 162 165 168 171 174 177 180 183 186 189 192 195 
        </DataArray>
        <DataArray type="UInt8" Name="types" format="ascii">
          5 5 5 5 5 5 5 5 5 5 5 5 5 5 5 5 5 5 5 5 5 5 5 5 5 5 5 5 5 5 5 5 5 5 5 5 5 5 5 5 5 5 5 5 5 5 5 5 5 5 5 5 5 5 5 5 5 5 5 5 5 5 5 5 5 
        </DataArray>
      </Cells>
      <CellData>
        <DataArray type="Float32" Name="F0_Alpha_SG_co2liq_mod.xml" format="ascii">
1.72682e-10 1.72682e-10 1.72683e-10 1.72682e-10 1.67154e-10 1.6721e-10 1.72677e-10 1.72677e-10 1.67979e-10 1.67834e-10 1.67914e-10 1.67913e-10 1.66072e-10 1.66248e-10 1.72682e-10 1.72682e-10 1.71397e-10 1.70793e-10 1.7248e-10 1.72319e-10 1.72296e-10 1.72701e-10 1.72682e-10 1.72682e-10 1.71134e-10 1.71123e-10 1.72682e-10 1.72682e-10 1.72682e-10 1.72682e-10 1.72682e-10 1.72682e-10 1.72695e-10 1.72682e-10 1.72682e-10 1.72682e-10 1.72682e-10 1.72682e-10 1.72682e-10 1.73011e-10 1.73011e-10 1.72682e-10 1.72682e-10 1.72682e-10 1.72682e-10 1.72703e-10 1.72704e-10 1.72682e-10 1.72682e-10 1.72682e-10 1.72682e-10 1.72682e-10 1.73094e-10 1.72682e-10 1.72682e-10 1.72682e-10 1.72682e-10 1.72682e-10 1.72682e-10 1.72682e-10 1.72682e-10 1.72693e-10 1.72683e-10 1.72916e-10 1.72721e-10 
        </DataArray>
        <DataArray type="Float32" Name="F0_Density_SG_co2liq_mod.xml" format="ascii">
5897.13 5897.13 5897.08 5897.11 6280.85 6277.64 5897.43 5897.48 6220.73 6227.47 6304.93 6304.96 6414.75 6403.3 5897.13 5897.13 5975.4 6011.04 5909.76 5919.52 5920.94 5895.91 5897.13 5897.13 5988.75 5989.45 5897.13 5897.13 5897.13 5897.13 5897.13 5897.13 5896.32 5897.14 5897.13 5897.13 5897.13 5897.13 5897.13 5875.53 5875.53 5897.13 5897.13 5897.13 5897.1 5895.76 5895.75 5897.1 5897.13 5897.13 5897.13 5897.13 5867.03 5897.13 5897.13 5897.13 5897.13 5897.13 5897.13 5897.13 5897.12 5896.46 5897.06 5881.95 5894.66 
        </DataArray>
        <DataArray type="Float32" Name="F0_Temperature_SG_co2liq_mod.xml" format="ascii">
41.7807 41.7807 41.7805 41.7806 42.3118 42.3097 41.7816 41.7818 42.2688 42.274 42.327 42.3271 42.3856 42.3802 41.7807 41.7807 41.9714 42.0342 41.8185 41.8454 41.8492 41.7768 41.7807 41.7807 41.9962 41.9974 41.7807 41.7807 41.7807 41.7807 41.7807 41.7807 41.7781 41.7807 41.7807 41.7807 41.7807 41.7807 41.7807 41.706 41.706 41.7807 41.7807 41.7807 41.7806 41.7764 41.7763 41.7806 41.7807 41.7807 41.7807 41.7807 41.6721 41.7807 41.7807 41.7807 41.7807 41.7807 41.7807 41.7807 41.7806 41.7785 41.7805 41.7297 41.7728 
        </DataArray>
        <DataArray type="Float32" Name="F0_Mass fraction_SG_co2liq_mod.xml" format="ascii">
9.5945e-09 9.59437e-09 9.59635e-09 9.59513e-09 3.51902e-09 3.53261e-09 9.58169e-09 9.5798e-09 3.90511e-09 3.88225e-09 3.02915e-09 3.02906e-09 2.70897e-09 2.74234e-09 9.5944e-09 9.59441e-09 7.26446e-09 6.5809e-09 9.10186e-09 8.76815e-09 8.7209e-09 9.64657e-09 9.5944e-09 9.5944e-09 7.04946e-09 7.03546e-09 9.5944e-09 9.5944e-09 9.5944e-09 9.5944e-09 9.5944e-09 9.5944e-09 9.62871e-09 9.59387e-09 9.5944e-09 9.5944e-09 9.5944e-09 9.5944e-09 9.5944e-09 1.06389e-08 1.06388e-08 9.5944e-09 9.5944e-09 9.59441e-09 9.59549e-09 9.65233e-09 9.65283e-09 9.59553e-09 9.59441e-09 9.5944e-09 9.5944e-09 9.5944e-09 1.13083e-08 9.5944e-09 9.5944e-09 9.5944e-09 9.5944e-09 9.5944e-09 9.5944e-09 9.59443e-09 9.59477e-09 9.6229e-09 9.59714e-09 1.02963e-08 9.70018e-09 
        </DataArray>
        <DataArray type="Float32" Name="F1_Alpha_SG_co2gas_mod.xml" format="ascii">
1 1 1 1 1 1 1 1 1 1 1 1 1 1 1 1 1 1 1 1 1 1 1 1 1 1 1 1 1 1 1 1 1 1 1 1 1 1 1 1 1 1 1 1 1 1 1 1 1 1 1 1 1 1 1 1 1 1 1 1 1 1 1 1 1 
        </DataArray>
        <DataArray type="Float32" Name="F1_Density_SG_co2gas_mod.xml" format="ascii">
106.137 106.138 106.116 106.13 298.341 297.141 106.281 106.302 267.585 269.221 349.499 349.51 393.252 388.186 106.138 106.138 140.983 156.004 111.99 116.336 116.978 105.553 106.138 106.138 145.384 145.681 106.138 106.138 106.138 106.138 106.138 106.138 105.753 106.144 106.138 106.138 106.138 106.138 106.138 95.5489 95.5491 106.138 106.138 106.138 106.126 105.489 105.484 106.125 106.138 106.138 106.138 106.138 89.8055 106.138 106.138 106.138 106.138 106.138 106.138 106.137 106.134 105.818 106.107 98.7815 104.96 
        </DataArray>
        <DataArray type="Float32" Name="F1_Temperature_SG_co2gas_mod.xml" format="ascii">
466.385 466.385 466.38 466.383 417.875 417.613 466.424 466.429 425.134 427.127 369.092 369.094 377.605 377.337 466.385 466.385 472.506 473.623 468.039 469.491 469.627 466.257 466.385 466.385 477.118 477.131 466.385 466.385 466.385 466.385 466.385 466.385 466.284 466.387 466.385 466.385 466.385 466.385 466.385 463.585 463.585 466.385 466.385 466.385 466.382 466.214 466.213 466.382 466.385 466.385 466.385 466.385 469.309 466.385 466.385 466.385 466.385 466.385 466.385 466.385 466.384 466.301 466.377 464.418 466.086 
        </DataArray>
        <DataArray type="Float32" Name="F1_Mass fraction_SG_co2gas_mod.xml" format="ascii">
1 1 1 1 1 1 1 1 1 1 1 1 1 1 1 1 1 1 1 1 1 1 1 1 1 1 1 1 1 1 1 1 1 1 1 1 1 1 1 1 1 1 1 1 1 1 1 1 1 1 1 1 1 1 1 1 1 1 1 1 1 1 1 1 1 
        </DataArray>
        <DataArray type="Float32" Name="Density_Mixture" format="ascii">
106.137 106.138 106.116 106.13 298.341 297.141 106.281 106.302 267.585 269.221 349.499 349.51 393.252 388.186 106.138 106.138 140.983 156.004 111.99 116.336 116.978 105.553 106.138 106.138 145.384 145.681 106.138 106.138 106.138 106.138 106.138 106.138 105.753 106.144 106.138 106.138 106.138 106.138 106.138 95.5489 95.5491 106.138 106.138 106.138 106.126 105.489 105.484 106.125 106.138 106.138 106.138 106.138 89.8055 106.138 106.138 106.138 106.138 106.138 106.138 106.137 106.134 105.818 106.107 98.7815 104.96 
        </DataArray>
        <DataArray type="Float32" Name="Pressure_Mixture" format="ascii">
6.27178e+06 6.27189e+06 6.27029e+06 6.27127e+06 1.71411e+07 1.70574e+07 6.28211e+06 6.28363e+06 1.55636e+07 1.57418e+07 1.7767e+07 1.77677e+07 2.05862e+07 2.02945e+07 6.27186e+06 6.27185e+06 8.74657e+06 9.79804e+06 6.6933e+06 7.01183e+06 7.05776e+06 6.2305e+06 6.27186e+06 6.27186e+06 9.14425e+06 9.16497e+06 6.27186e+06 6.27186e+06 6.27186e+06 6.27186e+06 6.27186e+06 6.27186e+06 6.24435e+06 6.27228e+06 6.27186e+06 6.27186e+06 6.27186e+06 6.27186e+06 6.27186e+06 5.51906e+06 5.51907e+06 6.27186e+06 6.27186e+06 6.27185e+06 6.27098e+06 6.22552e+06 6.22512e+06 6.27094e+06 6.27185e+06 6.27186e+06 6.27186e+06 6.27186e+06 5.20839e+06 6.27186e+06 6.27186e+06 6.27186e+06 6.27186e+06 6.27186e+06 6.27186e+06 6.27184e+06 6.27156e+06 6.24899e+06 6.26965e+06 5.74766e+06 6.18788e+06 
        </DataArray>
        <DataArray type="Float32" Name="Velocity_Mixture" NumberOfComponents="3" format="ascii">
-0.00280925 4.33899e-05 0 0.000784964 0.000212907 0 -0.0340038 0.0451623 0 -0.0122687 -0.0170646 0 260.653 -9.10044 0 261.48 10.891 0 0.333677 -0.127147 0 0.38225 0.154033 0 247.104 46.2677 0 243.689 -38.829 0 331.015 0.461383 0 331.01 -0.46387 0 304.598 -37.8402 0 300.503 52.3148 0 0.00010964 0.000100633 0 -0.000208962 0.000161206 0 85.6887 -4.5463 0 82.5954 31.8245 0 14.1018 -4.41105 0 26.4335 -7.05353 0 26.0769 6.48779 0 -1.50422 -7.42234 0 0 0 0 0 0 0 96.8601 -16.7531 0 97.7443 18.1147 0 0 0 0 0 0 0 0 0 0 0 0 0 0 0 0 0 0 0 -0.550386 -0.207234 0 -0.248918 -0.169675 0 0 0 0 0 0 0 0 0 0 0 0 0 0 0 0 7.05891 -1.3647 0 7.05857 1.36494 0 0 0 0 0 0 0 1.77135e-05 -6.69977e-05 0 0.00506283 -0.00697579 0 0.301838 -0.222934 0 0.330167 0.213499 0 0.00576027 0.00696113 0 2.53221e-05 7.06981e-05 0 0 0 0 0 0 0 0 0 0 40.0803 0.000144693 0 0 0 0 0 0 0 0 0 0 0 0 0 0 0 0 0 0 0 0.00108147 -3.80984e-05 0 0.00274112 0.00051629 0 0.238601 0.0385456 0 0.127112 -0.0044492 0 7.74185 -0.0016527 0 5.33238 -0.164799 0 
        </DataArray>
        <DataArray type="Float32" Name="gradRho" format="ascii">
0.00618055 0.0024293 0.0375568 0.147816 64.0254 64.0048 4.15139 3.89962 64.637 71.5939 35.531 36.3698 29.2823 28.4725 0.000137128 0.000321456 47.9062 46.6785 10.1968 14.4148 13.4126 13.4431 3.30475e-05 1.48331e-05 60.8348 61.4722 0 3.30067e-08 5.81433e-08 5.9298e-07 1.23647e-06 0 0.133673 2.04939 0 0 0 0 0 0.914592 0.914667 6.46676e-10 1.74902e-07 4.11392e-05 0.00333402 0.0806738 0.0788663 0.00310659 3.63435e-05 1.4831e-07 6.46676e-10 0 0.828053 0 0 1.76272e-08 4.10447e-08 1.44336e-05 6.81236e-06 0.00139104 0.00218702 0.133072 0.102968 2.47307 2.21301 
        </DataArray>
      </CellData>
    </Piece>
  </UnstructuredGrid>
</VTKFile>
