<?xml version="1.0"?>
<VTKFile type="UnstructuredGrid" version="0.1" byte_order="LittleEndian">
  <UnstructuredGrid>
    <Piece NumberOfPoints="50" NumberOfCells="65">
      <Points>
        <DataArray type="Float32" NumberOfComponents="3" format="ascii">
          0 5 0 0 -5 0 15 0.2 0 15 -0.2 0 35 0.2 0 35 -0.2 0 2.14286 4.31429 0 4.28571 3.62857 0 6.42857 2.94286 0 8.57143 2.25714 0 10.7143 1.57143 0 12.8571 0.885714 0 17.8571 0.2 0 20.7143 0.2 0 23.5714 0.2 0 26.4286 0.2 0 29.2857 0.2 0 32.1429 0.2 0 32.1429 -0.2 0 29.2857 -0.2 0 26.4286 -0.2 0 23.5714 -0.2 0 20.7143 -0.2 0 17.8571 -0.2 0 12.8571 -0.885714 0 10.7143 -1.57143 0 8.57143 -2.25714 0 6.42857 -2.94286 0 4.28571 -3.62857 0 2.14286 -4.31429 0 0 -2.5 0 0 -6.16307e-12 0 0 2.5 0 3.95974 -5.7158e-13 0 13.9286 -3.66374e-15 0 6.61813 2.81487e-12 0 2.86365 2.0434 0 2.86365 -2.0434 0 9.43036 1.987e-12 0 11.3926 2.79508e-14 0 4.83116 1.72297 0 4.83116 -1.72297 0 1.90629 -3.21031e-12 0 33.5714 0 0 16.4286 -1.80625e-18 0 25 6.93889e-18 0 19.2857 -6.93889e-18 0 30.7143 0 0 22.1429 0 0 27.8571 0 0 
        </DataArray>
      </Points>
      <Cells>
        <DataArray type="Int32" Name="connectivity" format="ascii">
          8 9 35 26 27 35 8 35 40 27 41 35 30 42 37 32 36 42 33 40 35 33 35 41 29 30 37 6 36 32 30 31 42 31 32 42 0 6 32 30 29 1 26 35 38 9 38 35 6 7 36 28 29 37 7 40 36 33 41 37 33 36 40 28 37 41 9 10 38 25 26 38 33 42 36 33 37 42 11 34 24 24 25 39 10 11 39 25 38 39 10 39 38 11 24 39 27 28 41 7 8 40 2 34 11 3 24 34 2 3 34 2 44 12 3 23 44 4 17 43 5 43 18 12 46 13 13 48 14 14 45 15 15 49 16 16 47 17 18 47 19 19 49 20 20 45 21 21 48 22 22 46 23 2 3 44 4 43 5 12 44 23 12 23 46 13 46 22 13 22 48 14 21 45 14 48 21 15 45 20 15 20 49 16 19 47 16 49 19 17 18 43 17 47 18 
        </DataArray>
        <DataArray type="Int32" Name="offsets" format="ascii">
          3 6 9 12 15 18 21 24 27 30 33 36 39 42 45 48 51 54 57 60 63 66 69 72 75 78 81 84 87 90 93 96 99 102 105 108 111 114 117 120 123 126 129 132 135 138 141 144 147 150 153 156 159 162 165 168 171 174 177 180 183 186 189 192 195 
        </DataArray>
        <DataArray type="UInt8" Name="types" format="ascii">
          5 5 5 5 5 5 5 5 5 5 5 5 5 5 5 5 5 5 5 5 5 5 5 5 5 5 5 5 5 5 5 5 5 5 5 5 5 5 5 5 5 5 5 5 5 5 5 5 5 5 5 5 5 5 5 5 5 5 5 5 5 5 5 5 5 
        </DataArray>
      </Cells>
      <CellData>
        <DataArray type="Float32" Name="F0_Alpha_SG_co2liq_mod.xml" format="ascii">
1.72682e-10 1.72682e-10 1.72682e-10 1.72682e-10 1.72215e-10 1.72216e-10 1.72682e-10 1.72682e-10 1.72343e-10 1.72351e-10 1.70429e-10 1.70429e-10 1.70481e-10 1.70479e-10 1.72682e-10 1.72682e-10 1.72687e-10 1.72689e-10 1.72683e-10 1.72682e-10 1.72682e-10 1.72682e-10 1.72682e-10 1.72682e-10 1.72693e-10 1.72693e-10 1.72682e-10 1.72682e-10 1.72682e-10 1.72682e-10 1.72682e-10 1.72682e-10 1.72682e-10 1.72682e-10 1.72682e-10 1.72682e-10 1.72682e-10 1.72682e-10 1.72682e-10 1.72742e-10 1.72742e-10 1.72682e-10 1.72682e-10 1.72682e-10 1.72682e-10 1.72682e-10 1.72682e-10 1.72682e-10 1.72682e-10 1.72682e-10 1.72682e-10 1.72682e-10 1.72864e-10 1.72682e-10 1.72682e-10 1.72682e-10 1.72682e-10 1.72682e-10 1.72682e-10 1.72682e-10 1.72682e-10 1.72682e-10 1.72682e-10 1.72693e-10 1.72682e-10 
        </DataArray>
        <DataArray type="Float32" Name="F0_Density_SG_co2liq_mod.xml" format="ascii">
5897.13 5897.13 5897.13 5897.13 5928.04 5928.04 5897.13 5897.13 5919.63 5919.12 6075.68 6075.69 6068.45 6068.47 5897.13 5897.13 5896.82 5896.67 5897.05 5897.12 5897.12 5897.11 5897.13 5897.13 5896.41 5896.41 5897.13 5897.13 5897.13 5897.13 5897.13 5897.13 5897.13 5897.13 5897.13 5897.13 5897.13 5897.13 5897.13 5893.3 5893.3 5897.13 5897.13 5897.13 5897.13 5897.13 5897.13 5897.13 5897.13 5897.13 5897.13 5897.13 5884.46 5897.13 5897.13 5897.13 5897.13 5897.13 5897.13 5897.13 5897.13 5897.13 5897.13 5896.45 5897.11 
        </DataArray>
        <DataArray type="Float32" Name="F0_Temperature_SG_co2liq_mod.xml" format="ascii">
41.7807 41.7807 41.7807 41.7807 41.8675 41.8675 41.7807 41.7807 41.8457 41.8443 42.1261 42.1261 42.1169 42.117 41.7807 41.7807 41.7797 41.7792 41.7804 41.7806 41.7806 41.7806 41.7807 41.7807 41.7784 41.7784 41.7807 41.7807 41.7807 41.7807 41.7807 41.7807 41.7807 41.7807 41.7807 41.7807 41.7807 41.7807 41.7807 41.7684 41.7684 41.7807 41.7807 41.7807 41.7807 41.7807 41.7807 41.7807 41.7807 41.7807 41.7807 41.7807 41.7386 41.7807 41.7807 41.7807 41.7807 41.7807 41.7807 41.7807 41.7807 41.7807 41.7807 41.7785 41.7806 
        </DataArray>
        <DataArray type="Float32" Name="F0_Mass fraction_SG_co2liq_mod.xml" format="ascii">
9.5944e-09 9.5944e-09 9.5944e-09 9.5944e-09 8.41177e-09 8.41198e-09 9.5944e-09 9.5944e-09 8.70146e-09 8.71921e-09 4.9751e-09 4.97505e-09 5.10389e-09 5.10563e-09 9.5944e-09 9.5944e-09 9.60755e-09 9.61396e-09 9.59763e-09 9.59475e-09 9.59477e-09 9.59539e-09 9.5944e-09 9.5944e-09 9.62503e-09 9.62502e-09 9.5944e-09 9.5944e-09 9.5944e-09 9.5944e-09 9.5944e-09 9.5944e-09 9.5944e-09 9.59441e-09 9.5944e-09 9.5944e-09 9.5944e-09 9.5944e-09 9.5944e-09 9.7595e-09 9.7595e-09 9.5944e-09 9.5944e-09 9.5944e-09 9.5944e-09 9.59453e-09 9.59457e-09 9.5944e-09 9.5944e-09 9.5944e-09 9.5944e-09 9.5944e-09 1.02164e-08 9.5944e-09 9.5944e-09 9.5944e-09 9.5944e-09 9.5944e-09 9.5944e-09 9.5944e-09 9.5944e-09 9.59441e-09 9.5944e-09 9.62316e-09 9.59543e-09 
        </DataArray>
        <DataArray type="Float32" Name="F1_Alpha_SG_co2gas_mod.xml" format="ascii">
1 1 1 1 1 1 1 1 1 1 1 1 1 1 1 1 1 1 1 1 1 1 1 1 1 1 1 1 1 1 1 1 1 1 1 1 1 1 1 1 1 1 1 1 1 1 1 1 1 1 1 1 1 1 1 1 1 1 1 1 1 1 1 1 1 
        </DataArray>
        <DataArray type="Float32" Name="F1_Density_SG_co2gas_mod.xml" format="ascii">
106.138 106.138 106.138 106.138 121.366 121.363 106.138 106.138 117.245 117.002 208.131 208.133 202.7 202.628 106.138 106.138 105.99 105.918 106.101 106.134 106.134 106.127 106.138 106.138 105.794 105.794 106.138 106.138 106.138 106.138 106.138 106.138 106.138 106.138 106.138 106.138 106.138 106.138 106.138 104.311 104.311 106.138 106.138 106.138 106.138 106.136 106.136 106.138 106.138 106.138 106.138 106.138 99.5665 106.138 106.138 106.138 106.138 106.138 106.138 106.138 106.138 106.138 106.138 105.815 106.126 
        </DataArray>
        <DataArray type="Float32" Name="F1_Temperature_SG_co2gas_mod.xml" format="ascii">
466.385 466.385 466.385 466.385 465.627 465.627 466.385 466.385 466.063 466.058 416.077 416.077 420.333 420.497 466.385 466.385 466.347 466.328 466.376 466.384 466.384 466.382 466.385 466.385 466.297 466.297 466.385 466.385 466.385 466.385 466.385 466.385 466.385 466.385 466.385 466.385 466.385 466.385 466.385 465.909 465.909 466.385 466.385 466.385 466.385 466.385 466.385 466.385 466.385 466.385 466.385 466.385 466.895 466.385 466.385 466.385 466.385 466.385 466.385 466.385 466.385 466.385 466.385 466.3 466.382 
        </DataArray>
        <DataArray type="Float32" Name="F1_Mass fraction_SG_co2gas_mod.xml" format="ascii">
1 1 1 1 1 1 1 1 1 1 1 1 1 1 1 1 1 1 1 1 1 1 1 1 1 1 1 1 1 1 1 1 1 1 1 1 1 1 1 1 1 1 1 1 1 1 1 1 1 1 1 1 1 1 1 1 1 1 1 1 1 1 1 1 1 
        </DataArray>
        <DataArray type="Float32" Name="Density_Mixture" format="ascii">
106.138 106.138 106.138 106.138 121.366 121.363 106.138 106.138 117.245 117.002 208.131 208.133 202.7 202.628 106.138 106.138 105.99 105.918 106.101 106.134 106.134 106.127 106.138 106.138 105.794 105.794 106.138 106.138 106.138 106.138 106.138 106.138 106.138 106.138 106.138 106.138 106.138 106.138 106.138 104.311 104.311 106.138 106.138 106.138 106.138 106.136 106.136 106.138 106.138 106.138 106.138 106.138 99.5665 106.138 106.138 106.138 106.138 106.138 106.138 106.138 106.138 106.138 106.138 105.815 106.126 
        </DataArray>
        <DataArray type="Float32" Name="Pressure_Mixture" format="ascii">
6.27186e+06 6.27186e+06 6.27186e+06 6.27186e+06 7.28553e+06 7.2853e+06 6.27186e+06 6.27186e+06 7.01549e+06 6.99901e+06 1.16361e+07 1.16363e+07 1.14341e+07 1.14346e+07 6.27186e+06 6.27186e+06 6.2613e+06 6.25616e+06 6.26926e+06 6.27158e+06 6.27156e+06 6.27106e+06 6.27186e+06 6.27186e+06 6.24731e+06 6.24733e+06 6.27186e+06 6.27186e+06 6.27186e+06 6.27186e+06 6.27186e+06 6.27186e+06 6.27186e+06 6.27185e+06 6.27186e+06 6.27186e+06 6.27186e+06 6.27186e+06 6.27186e+06 6.14145e+06 6.14145e+06 6.27186e+06 6.27186e+06 6.27186e+06 6.27186e+06 6.27175e+06 6.27172e+06 6.27186e+06 6.27186e+06 6.27186e+06 6.27186e+06 6.27186e+06 5.83604e+06 6.27186e+06 6.27186e+06 6.27186e+06 6.27186e+06 6.27186e+06 6.27186e+06 6.27186e+06 6.27186e+06 6.27185e+06 6.27186e+06 6.24879e+06 6.27103e+06 
        </DataArray>
        <DataArray type="Float32" Name="Velocity_Mixture" NumberOfComponents="3" format="ascii">
0 0 0 0 0 0 0 0 0 0 0 0 41.1408 -11.6853 0 41.1486 11.7231 0 -8.16731e-06 1.24255e-06 0 0 0 0 28.8092 13.0285 0 28.5818 -12.2638 0 222.733 1.60644 0 222.73 -1.60868 0 209.421 -6.90977 0 206.068 17.2375 0 0 0 0 0 0 0 -0.611741 -0.311248 0 -0.518423 0.143114 0 -0.0700815 0.0596002 0 -0.00852702 0.00380951 0 -0.00822236 -0.00169117 0 -0.0216812 -0.0183429 0 0 0 0 0 0 0 -0.780308 0.343579 0 -0.780041 -0.343398 0 0 0 0 0 0 0 0 0 0 0 0 0 0 0 0 0 0 0 9.61583e-05 -2.09154e-05 0 -0.000204633 -5.13974e-05 0 0 0 0 0 0 0 0 0 0 0 0 0 0 0 0 0.747523 -1.36605 0 0.747523 1.36605 0 0 0 0 0 0 0 0 0 0 0 0 0 0.000503509 -0.00212248 0 0.000709368 0.0027367 0 0 0 0 0 0 0 0 0 0 0 0 0 0 0 0 10.8569 0 0 0 0 0 0 0 0 0 0 0 0 0 0 0 0 0 0 0 0 0 0 0 0 0 0 7.26099e-05 4.12871e-05 0 2.84264e-06 0 0 0.196142 0 0 0.0364681 -0.00142341 0 
        </DataArray>
        <DataArray type="Float32" Name="gradRho" format="ascii">
4.11376e-07 2.54598e-07 2.70355e-05 1.24456e-05 30.8033 30.8324 0.00160441 0.00151409 24.85 24.7938 60.2597 60.263 20.2323 20.158 3.16478e-10 6.99479e-09 3.6215 3.70795 0.05443 0.115651 0.113387 0.0706438 1.41111e-11 0 5.24647 5.24752 0 0 0 0 0 0 0.00391831 0.0126907 0 0 0 0 0 0.947911 0.947911 0 0 2.89245e-11 5.50893e-07 0.0023911 0.00216201 5.19212e-07 2.89245e-11 0 0 0 0.683963 0 0 0 0 0 0 5.40238e-09 3.85777e-08 0.000312188 3.74441e-05 0.253538 0.109891 
        </DataArray>
      </CellData>
    </Piece>
  </UnstructuredGrid>
</VTKFile>
