<?xml version="1.0"?>
<VTKFile type="UnstructuredGrid" version="0.1" byte_order="LittleEndian">
  <UnstructuredGrid>
    <Piece NumberOfPoints="50" NumberOfCells="65">
      <Points>
        <DataArray type="Float32" NumberOfComponents="3" format="ascii">
          0 5 0 0 -5 0 15 0.2 0 15 -0.2 0 35 0.2 0 35 -0.2 0 2.14286 4.31429 0 4.28571 3.62857 0 6.42857 2.94286 0 8.57143 2.25714 0 10.7143 1.57143 0 12.8571 0.885714 0 17.8571 0.2 0 20.7143 0.2 0 23.5714 0.2 0 26.4286 0.2 0 29.2857 0.2 0 32.1429 0.2 0 32.1429 -0.2 0 29.2857 -0.2 0 26.4286 -0.2 0 23.5714 -0.2 0 20.7143 -0.2 0 17.8571 -0.2 0 12.8571 -0.885714 0 10.7143 -1.57143 0 8.57143 -2.25714 0 6.42857 -2.94286 0 4.28571 -3.62857 0 2.14286 -4.31429 0 0 -2.5 0 0 -6.16307e-12 0 0 2.5 0 3.95974 -5.7158e-13 0 13.9286 -3.66374e-15 0 6.61813 2.81487e-12 0 2.86365 2.0434 0 2.86365 -2.0434 0 9.43036 1.987e-12 0 11.3926 2.79508e-14 0 4.83116 1.72297 0 4.83116 -1.72297 0 1.90629 -3.21031e-12 0 33.5714 0 0 16.4286 -1.80625e-18 0 25 6.93889e-18 0 19.2857 -6.93889e-18 0 30.7143 0 0 22.1429 0 0 27.8571 0 0 
        </DataArray>
      </Points>
      <Cells>
        <DataArray type="Int32" Name="connectivity" format="ascii">
          8 9 35 26 27 35 8 35 40 27 41 35 30 42 37 32 36 42 33 40 35 33 35 41 29 30 37 6 36 32 30 31 42 31 32 42 0 6 32 30 29 1 26 35 38 9 38 35 6 7 36 28 29 37 7 40 36 33 41 37 33 36 40 28 37 41 9 10 38 25 26 38 33 42 36 33 37 42 11 34 24 24 25 39 10 11 39 25 38 39 10 39 38 11 24 39 27 28 41 7 8 40 2 34 11 3 24 34 2 3 34 2 44 12 3 23 44 4 17 43 5 43 18 12 46 13 13 48 14 14 45 15 15 49 16 16 47 17 18 47 19 19 49 20 20 45 21 21 48 22 22 46 23 2 3 44 4 43 5 12 44 23 12 23 46 13 46 22 13 22 48 14 21 45 14 48 21 15 45 20 15 20 49 16 19 47 16 49 19 17 18 43 17 47 18 
        </DataArray>
        <DataArray type="Int32" Name="offsets" format="ascii">
          3 6 9 12 15 18 21 24 27 30 33 36 39 42 45 48 51 54 57 60 63 66 69 72 75 78 81 84 87 90 93 96 99 102 105 108 111 114 117 120 123 126 129 132 135 138 141 144 147 150 153 156 159 162 165 168 171 174 177 180 183 186 189 192 195 
        </DataArray>
        <DataArray type="UInt8" Name="types" format="ascii">
          5 5 5 5 5 5 5 5 5 5 5 5 5 5 5 5 5 5 5 5 5 5 5 5 5 5 5 5 5 5 5 5 5 5 5 5 5 5 5 5 5 5 5 5 5 5 5 5 5 5 5 5 5 5 5 5 5 5 5 5 5 5 5 5 5 
        </DataArray>
      </Cells>
      <CellData>
        <DataArray type="Float32" Name="F0_Alpha_SG_co2liq_mod.xml" format="ascii">
1.72597e-10 1.72624e-10 1.72181e-10 1.72389e-10 1.65282e-10 1.65243e-10 1.70086e-10 1.69924e-10 1.64402e-10 1.6422e-10 1.67741e-10 1.67741e-10 1.62974e-10 1.63273e-10 1.72682e-10 1.72673e-10 1.64101e-10 1.63454e-10 1.65676e-10 1.66094e-10 1.66206e-10 1.65503e-10 1.72682e-10 1.72682e-10 1.65625e-10 1.65656e-10 1.72682e-10 1.72682e-10 1.72682e-10 1.72682e-10 1.72682e-10 1.72682e-10 1.70423e-10 1.70342e-10 1.72682e-10 1.72682e-10 1.72682e-10 1.72682e-10 1.72682e-10 1.73258e-10 1.73258e-10 1.72682e-10 1.72682e-10 1.72683e-10 1.72698e-10 1.7283e-10 1.7283e-10 1.72698e-10 1.72683e-10 1.72682e-10 1.72682e-10 1.72682e-10 1.73302e-10 1.72682e-10 1.72682e-10 1.72682e-10 1.72682e-10 1.72682e-10 1.72682e-10 1.72683e-10 1.72692e-10 1.72789e-10 1.72706e-10 1.73172e-10 1.72873e-10 
        </DataArray>
        <DataArray type="Float32" Name="F0_Density_SG_co2liq_mod.xml" format="ascii">
5902.5 5900.81 5927.8 5915.09 6470.77 6473.18 6049.04 6058.18 6526.37 6537.25 6344.9 6344.88 6656.57 6636.71 5897.1 5897.73 6463.4 6503.99 6308.06 6309.33 6302.9 6318.71 5897.12 5897.12 6385.75 6383.75 5897.13 5897.13 5897.13 5897.13 5897.11 5897.13 6027 6030.54 5897.13 5897.13 5897.13 5897.13 5897.13 5858.11 5858.11 5897.13 5897.13 5897.08 5896.12 5887.57 5887.61 5896.11 5897.08 5897.13 5897.13 5897.13 5851.1 5897.13 5897.13 5897.13 5897.13 5897.1 5897.13 5897.03 5896.51 5890.26 5895.6 5864.4 5884.73 
        </DataArray>
        <DataArray type="Float32" Name="F0_Temperature_SG_co2liq_mod.xml" format="ascii">
41.7972 41.7921 41.8669 41.8334 42.4097 42.4106 42.0911 42.1035 42.4305 42.4342 42.3503 42.3503 42.4693 42.4642 41.7806 41.7826 42.4067 42.4224 42.329 42.3297 42.3258 42.3353 41.7807 41.7806 42.3717 42.3707 41.7807 41.7807 41.7807 41.7807 41.7806 41.7807 42.0592 42.0645 41.7807 41.7807 41.7807 41.7807 41.7807 41.6329 41.6329 41.7807 41.7807 41.7805 41.7775 41.7494 41.7495 41.7775 41.7805 41.7807 41.7807 41.7807 41.5989 41.7807 41.7807 41.7807 41.7807 41.7806 41.7807 41.7804 41.7787 41.7584 41.7758 41.6609 41.7396 
        </DataArray>
        <DataArray type="Float32" Name="F0_Mass fraction_SG_co2liq_mod.xml" format="ascii">
9.37638e-09 9.44333e-09 8.509e-09 8.92487e-09 2.54339e-09 2.53784e-09 6.06427e-09 5.94424e-09 2.418e-09 2.39705e-09 2.77653e-09 2.77661e-09 2.0838e-09 2.11647e-09 9.59573e-09 9.56921e-09 2.86973e-09 2.75377e-09 3.83949e-09 3.63043e-09 3.65932e-09 3.78161e-09 9.59467e-09 9.59473e-09 3.039e-09 3.04623e-09 9.5944e-09 9.5944e-09 9.59447e-09 9.59441e-09 9.5951e-09 9.5944e-09 6.45e-09 6.42092e-09 9.5944e-09 9.5944e-09 9.5944e-09 9.5944e-09 9.5944e-09 1.17528e-08 1.17525e-08 9.5944e-09 9.59447e-09 9.59665e-09 9.63733e-09 1.00204e-08 1.00188e-08 9.63744e-09 9.59667e-09 9.59447e-09 9.5944e-09 9.5944e-09 1.25473e-08 9.5944e-09 9.5944e-09 9.5944e-09 9.59443e-09 9.59556e-09 9.59454e-09 9.59842e-09 9.62066e-09 9.89563e-09 9.65936e-09 1.13119e-08 1.01598e-08 
        </DataArray>
        <DataArray type="Float32" Name="F1_Alpha_SG_co2gas_mod.xml" format="ascii">
1 1 1 1 1 1 1 1 1 1 1 1 1 1 1 1 1 1 1 1 1 1 1 1 1 1 1 1 1 1 1 1 1 1 1 1 1 1 1 1 1 1 1 1 1 1 1 1 1 1 1 1 1 1 1 1 1 1 1 1 1 1 1 1 1 
        </DataArray>
        <DataArray type="Float32" Name="F1_Density_SG_co2gas_mod.xml" format="ascii">
108.651 107.867 119.95 114.253 420.502 421.479 169.659 173.181 443.734 447.862 383.32 383.307 520.61 511.982 106.123 106.422 369.6 386.054 272.197 288.655 286.277 276.541 106.135 106.134 348.023 347.153 106.138 106.138 106.137 106.138 106.13 106.138 159.246 159.985 106.138 106.138 106.138 106.138 106.138 86.3595 86.3616 106.138 106.137 106.112 105.657 101.548 101.564 105.655 106.112 106.137 106.138 106.138 80.8145 106.138 106.138 106.138 106.137 106.125 106.136 106.092 105.843 102.851 105.411 89.7765 100.131 
        </DataArray>
        <DataArray type="Float32" Name="F1_Temperature_SG_co2gas_mod.xml" format="ascii">
467.087 466.854 470.678 469.347 376.488 376.616 479.916 480.458 378.59 379.313 355.15 355.149 365.796 365.307 466.381 466.461 424.854 425.083 475.968 449.616 449.328 475.388 466.385 466.384 411.984 411.997 466.385 466.385 466.385 466.385 466.383 466.385 483.997 486.151 466.385 466.385 466.385 466.385 466.385 461.02 461.021 466.385 466.385 466.379 466.258 465.168 465.17 466.258 466.379 466.385 466.385 466.385 469.079 466.385 466.385 466.385 466.385 466.382 466.385 466.373 466.308 465.512 466.196 461.902 464.898 
        </DataArray>
        <DataArray type="Float32" Name="F1_Mass fraction_SG_co2gas_mod.xml" format="ascii">
1 1 1 1 1 1 1 1 1 1 1 1 1 1 1 1 1 1 1 1 1 1 1 1 1 1 1 1 1 1 1 1 1 1 1 1 1 1 1 1 1 1 1 1 1 1 1 1 1 1 1 1 1 1 1 1 1 1 1 1 1 1 1 1 1 
        </DataArray>
        <DataArray type="Float32" Name="Density_Mixture" format="ascii">
108.651 107.867 119.95 114.253 420.502 421.479 169.659 173.181 443.734 447.862 383.32 383.307 520.61 511.982 106.123 106.422 369.6 386.054 272.197 288.655 286.277 276.541 106.135 106.134 348.023 347.153 106.138 106.138 106.137 106.138 106.13 106.138 159.246 159.985 106.138 106.138 106.138 106.138 106.138 86.3595 86.3616 106.138 106.137 106.112 105.657 101.548 101.564 105.655 106.112 106.137 106.138 106.138 80.8145 106.138 106.138 106.138 106.137 106.125 106.136 106.092 105.843 102.851 105.411 89.7765 100.131 
        </DataArray>
        <DataArray type="Float32" Name="Pressure_Mixture" format="ascii">
6.45237e+06 6.39576e+06 7.27778e+06 6.86809e+06 2.20062e+07 2.20672e+07 1.08876e+07 1.11456e+07 2.34058e+07 2.36787e+07 1.87992e+07 1.87986e+07 2.66512e+07 2.61586e+07 6.27079e+06 6.2922e+06 2.182e+07 2.28436e+07 1.78479e+07 1.78808e+07 1.77143e+07 1.81237e+07 6.27164e+06 6.27159e+06 1.98467e+07 1.97955e+07 6.27186e+06 6.27186e+06 6.2718e+06 6.27185e+06 6.27129e+06 6.27186e+06 1.0259e+07 1.03606e+07 6.27186e+06 6.27186e+06 6.27186e+06 6.27186e+06 6.27186e+06 4.87103e+06 4.87118e+06 6.27186e+06 6.27181e+06 6.27005e+06 6.23747e+06 5.94444e+06 5.94556e+06 6.23738e+06 6.27003e+06 6.2718e+06 6.27186e+06 6.27186e+06 4.59555e+06 6.27186e+06 6.27186e+06 6.27186e+06 6.27183e+06 6.27092e+06 6.27175e+06 6.26862e+06 6.25078e+06 6.03719e+06 6.21998e+06 5.11027e+06 5.84521e+06 
        </DataArray>
        <DataArray type="Float32" Name="Velocity_Mixture" NumberOfComponents="3" format="ascii">
6.7754 -0.15269 0 3.28949 0.795058 0 30.2197 -2.34157 0 19.4416 -8.66645 0 319.669 10.0319 0 320.583 -12.0427 0 139.663 -7.14876 0 145.416 7.15463 0 309.174 43.9127 0 308.42 -43.2981 0 343.126 0.10793 0 343.128 -0.106173 0 294.063 -43.428 0 295.534 45.9762 0 -0.0445354 -0.1621 0 0.627485 -0.367311 0 278.65 -56.1678 0 280.08 75.5311 0 242.643 -40.7211 0 250.983 8.61761 0 252.566 -3.83737 0 230.444 66.5342 0 -0.046544 -0.0377486 0 -0.00398417 -0.00255509 0 283.064 -18.8441 0 283.451 20.4924 0 0 0 0 1.57965e-05 1.97673e-06 0 -0.00174847 -0.000529681 0 0.000821486 0.00321239 0 -0.0158238 0.0126862 0 -3.0358e-05 5.5782e-05 0 90.8799 32.2045 0 120.983 -10.5356 0 0 0 0 0 0 0 0 0 0 0 0 0 0 0 0 19.6851 -0.913043 0 19.687 0.918008 0 0 0 0 0.000307566 -0.000315559 0 0.0123005 -0.00829688 0 0.259336 -0.107685 0 2.93375 -0.585314 0 2.98512 0.563136 0 0.272731 0.103387 0 0.0132509 0.00805241 0 0.000345036 0.000312102 0 0 0 0 0 0 0 61.1644 0.00572955 0 0 0 0 0 0 0 9.9753e-05 0 0 0.000213974 2.35574e-05 0 0.0108905 0.00128914 0 0.00659072 -0.000198457 0 0.201809 -0.00547261 0 0.288881 0.024015 0 4.19544 0.171121 0 3.28605 -0.0726932 0 32.43 -0.00616571 0 25.4702 -0.24176 0 
        </DataArray>
        <DataArray type="Float32" Name="gradRho" format="ascii">
3.61778 2.12427 16.3267 16.6679 22.3889 23.1942 54.7907 56.3209 39.4032 47.568 25.825 26.5098 17.1751 16.1125 0.427571 0.748214 45.6976 41.863 72.287 57.8569 59.3245 77.7988 0.0984424 0.00461511 44.9491 43.8325 1.22813e-05 4.72654e-05 0.00277065 0.00323147 0.0029707 0.000326456 46.9399 44.4682 2.20262e-07 2.43097e-07 3.1348e-08 4.28702e-08 3.59413e-08 0.847057 0.847754 4.35443e-06 0.000134744 0.00307034 0.0346107 0.198263 0.199668 0.0343297 0.00297499 0.00012882 3.72713e-06 1.45203e-08 0.799593 1.36136e-06 2.00685e-06 0.000102524 0.00014125 0.00523392 0.00412428 0.0892648 0.10533 1.02072 0.919753 3.95229 3.76095 
        </DataArray>
      </CellData>
    </Piece>
  </UnstructuredGrid>
</VTKFile>
