<?xml version="1.0"?>
<VTKFile type="UnstructuredGrid" version="0.1" byte_order="LittleEndian">
  <UnstructuredGrid>
    <Piece NumberOfPoints="50" NumberOfCells="65">
      <Points>
        <DataArray type="Float32" NumberOfComponents="3" format="ascii">
          0 5 0 0 -5 0 15 0.2 0 15 -0.2 0 35 0.2 0 35 -0.2 0 2.14286 4.31429 0 4.28571 3.62857 0 6.42857 2.94286 0 8.57143 2.25714 0 10.7143 1.57143 0 12.8571 0.885714 0 17.8571 0.2 0 20.7143 0.2 0 23.5714 0.2 0 26.4286 0.2 0 29.2857 0.2 0 32.1429 0.2 0 32.1429 -0.2 0 29.2857 -0.2 0 26.4286 -0.2 0 23.5714 -0.2 0 20.7143 -0.2 0 17.8571 -0.2 0 12.8571 -0.885714 0 10.7143 -1.57143 0 8.57143 -2.25714 0 6.42857 -2.94286 0 4.28571 -3.62857 0 2.14286 -4.31429 0 0 -2.5 0 0 -6.16307e-12 0 0 2.5 0 3.95974 -5.7158e-13 0 13.9286 -3.66374e-15 0 6.61813 2.81487e-12 0 2.86365 2.0434 0 2.86365 -2.0434 0 9.43036 1.987e-12 0 11.3926 2.79508e-14 0 4.83116 1.72297 0 4.83116 -1.72297 0 1.90629 -3.21031e-12 0 33.5714 0 0 16.4286 -1.80625e-18 0 25 6.93889e-18 0 19.2857 -6.93889e-18 0 30.7143 0 0 22.1429 0 0 27.8571 0 0 
        </DataArray>
      </Points>
      <Cells>
        <DataArray type="Int32" Name="connectivity" format="ascii">
          8 9 35 26 27 35 8 35 40 27 41 35 30 42 37 32 36 42 33 40 35 33 35 41 29 30 37 6 36 32 30 31 42 31 32 42 0 6 32 30 29 1 26 35 38 9 38 35 6 7 36 28 29 37 7 40 36 33 41 37 33 36 40 28 37 41 9 10 38 25 26 38 33 42 36 33 37 42 11 34 24 24 25 39 10 11 39 25 38 39 10 39 38 11 24 39 27 28 41 7 8 40 2 34 11 3 24 34 2 3 34 2 44 12 3 23 44 4 17 43 5 43 18 12 46 13 13 48 14 14 45 15 15 49 16 16 47 17 18 47 19 19 49 20 20 45 21 21 48 22 22 46 23 2 3 44 4 43 5 12 44 23 12 23 46 13 46 22 13 22 48 14 21 45 14 48 21 15 45 20 15 20 49 16 19 47 16 49 19 17 18 43 17 47 18 
        </DataArray>
        <DataArray type="Int32" Name="offsets" format="ascii">
          3 6 9 12 15 18 21 24 27 30 33 36 39 42 45 48 51 54 57 60 63 66 69 72 75 78 81 84 87 90 93 96 99 102 105 108 111 114 117 120 123 126 129 132 135 138 141 144 147 150 153 156 159 162 165 168 171 174 177 180 183 186 189 192 195 
        </DataArray>
        <DataArray type="UInt8" Name="types" format="ascii">
          5 5 5 5 5 5 5 5 5 5 5 5 5 5 5 5 5 5 5 5 5 5 5 5 5 5 5 5 5 5 5 5 5 5 5 5 5 5 5 5 5 5 5 5 5 5 5 5 5 5 5 5 5 5 5 5 5 5 5 5 5 5 5 5 5 
        </DataArray>
      </Cells>
      <CellData>
        <DataArray type="Float32" Name="F0_Alpha_SG_co2liq_mod.xml" format="ascii">
1.70485e-10 1.70318e-10 1.67027e-10 1.67443e-10 1.64992e-10 1.64913e-10 1.65162e-10 1.64716e-10 1.63501e-10 1.63431e-10 1.67776e-10 1.67776e-10 1.61166e-10 1.61466e-10 1.72522e-10 1.72246e-10 1.6246e-10 1.62604e-10 1.62169e-10 1.63023e-10 1.63597e-10 1.6168e-10 1.72659e-10 1.72686e-10 1.64286e-10 1.64359e-10 1.72682e-10 1.72682e-10 1.72685e-10 1.72684e-10 1.72698e-10 1.72682e-10 1.62832e-10 1.63129e-10 1.72682e-10 1.72682e-10 1.72682e-10 1.72682e-10 1.72682e-10 1.73358e-10 1.73358e-10 1.72682e-10 1.72682e-10 1.72688e-10 1.72739e-10 1.72962e-10 1.72962e-10 1.72739e-10 1.72688e-10 1.72682e-10 1.72682e-10 1.72682e-10 1.7339e-10 1.72682e-10 1.72682e-10 1.72682e-10 1.72682e-10 1.72686e-10 1.72683e-10 1.72691e-10 1.72722e-10 1.72903e-10 1.72757e-10 1.73288e-10 1.73017e-10 
        </DataArray>
        <DataArray type="Float32" Name="F0_Density_SG_co2liq_mod.xml" format="ascii">
6023.69 6033.1 6212.7 6189.09 6513.51 6518.52 6362.67 6388.81 6618.89 6622.83 6347.55 6347.53 6789.49 6769.01 5907.16 5923.96 6633.94 6627.71 6594.03 6560.68 6527.67 6622.78 5898.6 5896.88 6521.74 6517.82 5897.13 5897.13 5896.92 5896.99 5896.1 5897.11 6472.1 6453.5 5897.13 5897.13 5897.13 5897.13 5897.13 5850.45 5850.45 5897.13 5897.1 5896.74 5893.49 5878.84 5878.84 5893.5 5896.73 5897.1 5897.13 5897.13 5844.25 5897.13 5897.13 5897.13 5897.12 5896.88 5897.09 5896.54 5894.57 5882.76 5892.3 5855.91 5875.06 
        </DataArray>
        <DataArray type="Float32" Name="F0_Temperature_SG_co2liq_mod.xml" format="ascii">
42.0542 42.0683 42.2625 42.2431 42.4259 42.4277 42.3599 42.3732 42.4593 42.4604 42.3518 42.3517 42.4978 42.494 41.811 41.8571 42.4634 42.4617 42.4522 42.4419 42.4309 42.4604 41.7853 41.7799 42.4288 42.4274 41.7807 41.7807 41.78 41.7802 41.7774 41.7806 42.4102 42.4026 41.7807 41.7807 41.7807 41.7807 41.7807 41.5955 41.5956 41.7807 41.7806 41.7794 41.769 41.7184 41.7184 41.7691 41.7794 41.7806 41.7807 41.7807 41.5622 41.7807 41.7807 41.7807 41.7806 41.7799 41.7805 41.7788 41.7725 41.7326 41.7652 41.6225 41.7042 
        </DataArray>
        <DataArray type="Float32" Name="F0_Mass fraction_SG_co2liq_mod.xml" format="ascii">
6.49735e-09 6.35313e-09 4.59849e-09 4.7777e-09 2.37438e-09 2.36402e-09 3.4118e-09 3.31189e-09 2.15271e-09 2.14738e-09 2.75033e-09 2.7504e-09 1.87144e-09 1.89834e-09 9.1977e-09 8.62443e-09 2.252e-09 2.25555e-09 2.50064e-09 2.50727e-09 2.57272e-09 2.44629e-09 9.53309e-09 9.60488e-09 2.46425e-09 2.47071e-09 9.59436e-09 9.59447e-09 9.60342e-09 9.60046e-09 9.63802e-09 9.59517e-09 3.18581e-09 3.25529e-09 9.59439e-09 9.5944e-09 9.5944e-09 9.5944e-09 9.5944e-09 1.23602e-08 1.23602e-08 9.59444e-09 9.59546e-09 9.61105e-09 9.75089e-09 1.04579e-08 1.0458e-08 9.75056e-09 9.6111e-09 9.59547e-09 9.59444e-09 9.5944e-09 1.31786e-08 9.5944e-09 9.59442e-09 9.59448e-09 9.59499e-09 9.60485e-09 9.59619e-09 9.61912e-09 9.70384e-09 1.0255e-08 9.80373e-09 1.19151e-08 1.06686e-08 
        </DataArray>
        <DataArray type="Float32" Name="F1_Alpha_SG_co2gas_mod.xml" format="ascii">
1 1 1 1 1 1 1 1 1 1 1 1 1 1 1 1 1 1 1 1 1 1 1 1 1 1 1 1 1 1 1 1 1 1 1 1 1 1 1 1 1 1 1 1 1 1 1 1 1 1 1 1 1 1 1 1 1 1 1 1 1 1 1 1 1 
        </DataArray>
        <DataArray type="Float32" Name="F1_Density_SG_co2gas_mod.xml" format="ascii">
158.056 161.739 225.659 216.908 452.615 454.731 308.011 317.746 502.712 504.045 387.213 387.203 584.7 575.748 110.801 118.313 478.574 477.796 427.629 426.576 415.089 437.711 106.833 106.02 434.79 433.586 106.138 106.137 106.036 106.07 105.649 106.129 330.799 323.398 106.138 106.138 106.138 106.138 106.138 82.0555 82.056 106.137 106.126 105.951 104.404 97.2292 97.2289 104.408 105.95 106.126 106.137 106.138 76.8925 106.138 106.138 106.137 106.131 106.02 106.118 105.86 104.92 99.1854 103.832 85.1655 95.2785 
        </DataArray>
        <DataArray type="Float32" Name="F1_Temperature_SG_co2gas_mod.xml" format="ascii">
483.478 484.021 497.611 497.68 366.228 366.438 452.232 452.945 365.953 366.332 352.794 352.793 364.454 364.082 467.71 470.012 389.815 388.211 420.203 407.747 405.259 421.829 466.562 466.354 384.53 384.028 466.385 466.385 466.359 466.367 466.257 466.383 479.282 480.196 466.385 466.385 466.385 466.385 466.385 459.798 459.798 466.385 466.382 466.336 465.927 464.002 463.997 465.928 466.336 466.382 466.385 466.385 467.809 466.385 466.385 466.385 466.384 466.354 466.38 466.312 466.063 464.52 465.789 460.55 463.674 
        </DataArray>
        <DataArray type="Float32" Name="F1_Mass fraction_SG_co2gas_mod.xml" format="ascii">
1 1 1 1 1 1 1 1 1 1 1 1 1 1 1 1 1 1 1 1 1 1 1 1 1 1 1 1 1 1 1 1 1 1 1 1 1 1 1 1 1 1 1 1 1 1 1 1 1 1 1 1 1 1 1 1 1 1 1 1 1 1 1 1 1 
        </DataArray>
        <DataArray type="Float32" Name="Density_Mixture" format="ascii">
158.056 161.739 225.659 216.908 452.615 454.731 308.011 317.746 502.712 504.045 387.213 387.203 584.7 575.748 110.801 118.313 478.574 477.796 427.629 426.576 415.089 437.711 106.833 106.02 434.79 433.586 106.138 106.137 106.036 106.07 105.649 106.129 330.799 323.398 106.138 106.138 106.138 106.138 106.138 82.0555 82.056 106.137 106.126 105.951 104.404 97.2292 97.2289 104.408 105.95 106.126 106.137 106.138 76.8925 106.138 106.138 106.137 106.131 106.02 106.118 105.86 104.92 99.1854 103.832 85.1655 95.2785 
        </DataArray>
        <DataArray type="Float32" Name="Pressure_Mixture" format="ascii">
1.01638e+07 1.0434e+07 1.53512e+07 1.47236e+07 2.30829e+07 2.32088e+07 1.92556e+07 1.9925e+07 2.57159e+07 2.5814e+07 1.88673e+07 1.88667e+07 2.99278e+07 2.9425e+07 6.60758e+06 7.15497e+06 2.60899e+07 2.59352e+07 2.50974e+07 2.4265e+07 2.34384e+07 2.58128e+07 6.32146e+06 6.26343e+06 2.32897e+07 2.31912e+07 6.27189e+06 6.2718e+06 6.2646e+06 6.26698e+06 6.23692e+06 6.27124e+06 2.20398e+07 2.15696e+07 6.27187e+06 6.27186e+06 6.27186e+06 6.27186e+06 6.27186e+06 4.5696e+06 4.56964e+06 6.27182e+06 6.271e+06 6.25848e+06 6.14804e+06 5.63757e+06 5.63748e+06 6.14829e+06 6.25844e+06 6.27099e+06 6.27182e+06 6.27186e+06 4.3154e+06 6.27186e+06 6.27184e+06 6.27179e+06 6.27138e+06 6.26345e+06 6.27042e+06 6.25202e+06 6.18481e+06 5.77624e+06 6.10739e+06 4.78564e+06 5.50216e+06 
        </DataArray>
        <DataArray type="Float32" Name="Velocity_Mixture" NumberOfComponents="3" format="ascii">
123.51 -12.4539 0 103.245 28.9418 0 201.428 -27.9185 0 198.497 27.9727 0 322.7 25.6336 0 322.511 -27.7261 0 274.4 -13.6819 0 278.528 22.7811 0 305.943 48.5239 0 306.107 -49.2423 0 343.76 0.0671325 0 343.763 -0.0642899 0 277.241 -42.5791 0 278.764 45.5394 0 8.80285 -0.46432 0 30.4232 -10.6455 0 293.514 -69.1398 0 297.489 76.4843 0 293.075 -67.4944 0 289.054 41.1762 0 296.153 -33.7329 0 286.965 84.4094 0 -0.855964 -1.92761 0 -0.244692 0.165103 0 304.096 -15.9634 0 303.322 16.0162 0 0.00117135 -0.000132453 0 0.000383299 0.000713648 0 -0.236525 -0.0516755 0 -0.0701922 0.157371 0 -1.00536 0.930688 0 -0.0152581 0.0201552 0 266.253 82.223 0 271.57 -62.6993 0 0.000172086 7.7597e-05 0 2.58629e-05 -5.35922e-06 0 0 -1.00002e-08 0 0 0 0 0 0 0 31.885 -0.643507 0 31.889 0.64569 0 0.000199457 -0.000174825 0 0.00609239 -0.00342607 0 0.103744 -0.0395398 0 1.09241 -0.242216 0 7.22314 -0.67878 0 7.22273 0.664862 0 1.11662 0.232717 0 0.108646 0.0380024 0 0.00649818 0.00331805 0 0.000223614 0.000170136 0 0 0 0 70.2979 0.00280594 0 8.199e-05 0 0 0.000162272 2.19985e-06 0 0.00399444 -0.000107255 0 0.00607146 0.000593104 0 0.123243 0.00877905 0 0.0898957 -0.00226062 0 1.2414 -0.0263537 0 1.55637 0.0630215 0 11.8322 0.0615867 0 9.85188 -0.11839 0 52.2567 -0.00236388 0 40.8992 -0.0686052 0 
        </DataArray>
        <DataArray type="Float32" Name="gradRho" format="ascii">
26.0579 24.4595 48.3185 48.8077 28.6206 28.7971 59.2745 63.3081 38.5076 40.4222 45.4236 46.8981 19.0418 17.243 14.311 15.5551 19.0528 16.5082 57.967 40.9546 44.0672 55.9627 4.1537 1.60824 13.1764 8.68384 0.00379773 0.0244025 0.158149 0.199386 0.182972 0.0430008 54.8471 51.1035 0.000159491 0.000205251 5.98152e-05 3.44515e-06 2.93209e-06 0.796895 0.797073 6.83637e-05 0.00121466 0.0127286 0.0798023 0.281642 0.281643 0.0801621 0.0126146 0.00118422 6.68998e-05 1.72804e-06 0.74441 7.50463e-05 9.76449e-05 0.00206009 0.00253338 0.0408236 0.0348847 0.337874 0.37856 1.81422 1.6814 3.83845 3.72703 
        </DataArray>
      </CellData>
    </Piece>
  </UnstructuredGrid>
</VTKFile>
