<?xml version="1.0"?>
<VTKFile type="UnstructuredGrid" version="0.1" byte_order="LittleEndian">
  <UnstructuredGrid>
    <Piece NumberOfPoints="50" NumberOfCells="65">
      <Points>
        <DataArray type="Float32" NumberOfComponents="3" format="ascii">
          0 5 0 0 -5 0 15 0.2 0 15 -0.2 0 35 0.2 0 35 -0.2 0 2.14286 4.31429 0 4.28571 3.62857 0 6.42857 2.94286 0 8.57143 2.25714 0 10.7143 1.57143 0 12.8571 0.885714 0 17.8571 0.2 0 20.7143 0.2 0 23.5714 0.2 0 26.4286 0.2 0 29.2857 0.2 0 32.1429 0.2 0 32.1429 -0.2 0 29.2857 -0.2 0 26.4286 -0.2 0 23.5714 -0.2 0 20.7143 -0.2 0 17.8571 -0.2 0 12.8571 -0.885714 0 10.7143 -1.57143 0 8.57143 -2.25714 0 6.42857 -2.94286 0 4.28571 -3.62857 0 2.14286 -4.31429 0 0 -2.5 0 0 -6.16307e-12 0 0 2.5 0 3.95974 -5.7158e-13 0 13.9286 -3.66374e-15 0 6.61813 2.81487e-12 0 2.86365 2.0434 0 2.86365 -2.0434 0 9.43036 1.987e-12 0 11.3926 2.79508e-14 0 4.83116 1.72297 0 4.83116 -1.72297 0 1.90629 -3.21031e-12 0 33.5714 0 0 16.4286 -1.80625e-18 0 25 6.93889e-18 0 19.2857 -6.93889e-18 0 30.7143 0 0 22.1429 0 0 27.8571 0 0 
        </DataArray>
      </Points>
      <Cells>
        <DataArray type="Int32" Name="connectivity" format="ascii">
          8 9 35 26 27 35 8 35 40 27 41 35 30 42 37 32 36 42 33 40 35 33 35 41 29 30 37 6 36 32 30 31 42 31 32 42 0 6 32 30 29 1 26 35 38 9 38 35 6 7 36 28 29 37 7 40 36 33 41 37 33 36 40 28 37 41 9 10 38 25 26 38 33 42 36 33 37 42 11 34 24 24 25 39 10 11 39 25 38 39 10 39 38 11 24 39 27 28 41 7 8 40 2 34 11 3 24 34 2 3 34 2 44 12 3 23 44 4 17 43 5 43 18 12 46 13 13 48 14 14 45 15 15 49 16 16 47 17 18 47 19 19 49 20 20 45 21 21 48 22 22 46 23 2 3 44 4 43 5 12 44 23 12 23 46 13 46 22 13 22 48 14 21 45 14 48 21 15 45 20 15 20 49 16 19 47 16 49 19 17 18 43 17 47 18 
        </DataArray>
        <DataArray type="Int32" Name="offsets" format="ascii">
          3 6 9 12 15 18 21 24 27 30 33 36 39 42 45 48 51 54 57 60 63 66 69 72 75 78 81 84 87 90 93 96 99 102 105 108 111 114 117 120 123 126 129 132 135 138 141 144 147 150 153 156 159 162 165 168 171 174 177 180 183 186 189 192 195 
        </DataArray>
        <DataArray type="UInt8" Name="types" format="ascii">
          5 5 5 5 5 5 5 5 5 5 5 5 5 5 5 5 5 5 5 5 5 5 5 5 5 5 5 5 5 5 5 5 5 5 5 5 5 5 5 5 5 5 5 5 5 5 5 5 5 5 5 5 5 5 5 5 5 5 5 5 5 5 5 5 5 
        </DataArray>
      </Cells>
      <CellData>
        <DataArray type="Float32" Name="F0_Alpha_SG_co2liq_mod.xml" format="ascii">
1.72668e-10 1.72674e-10 1.72572e-10 1.72638e-10 1.65436e-10 1.65482e-10 1.71666e-10 1.71614e-10 1.64957e-10 1.64713e-10 1.67728e-10 1.67729e-10 1.63736e-10 1.64033e-10 1.72682e-10 1.72681e-10 1.65688e-10 1.64712e-10 1.68545e-10 1.68093e-10 1.68062e-10 1.68705e-10 1.72682e-10 1.72682e-10 1.66664e-10 1.66656e-10 1.72682e-10 1.72682e-10 1.72682e-10 1.72682e-10 1.72682e-10 1.72682e-10 1.72154e-10 1.7197e-10 1.72682e-10 1.72682e-10 1.72682e-10 1.72682e-10 1.72682e-10 1.73203e-10 1.73203e-10 1.72682e-10 1.72682e-10 1.72682e-10 1.7269e-10 1.72784e-10 1.72784e-10 1.7269e-10 1.72682e-10 1.72682e-10 1.72682e-10 1.72682e-10 1.73254e-10 1.72682e-10 1.72682e-10 1.72682e-10 1.72682e-10 1.72682e-10 1.72682e-10 1.72683e-10 1.72686e-10 1.72752e-10 1.72695e-10 1.73112e-10 1.7282e-10 
        </DataArray>
        <DataArray type="Float32" Name="F0_Density_SG_co2liq_mod.xml" format="ascii">
5898.05 5897.63 5904.07 5899.9 6447.46 6444.42 5957.85 5960.83 6470.22 6486.13 6341.5 6341.47 6598.71 6579.24 5897.12 5897.21 6338.78 6399.41 6134.69 6173.54 6175.34 6126.98 5897.13 5897.13 6295.78 6296.06 5897.13 5897.13 5897.13 5897.13 5897.13 5897.13 5928.77 5939.39 5897.13 5897.13 5897.13 5897.13 5897.13 5862.12 5862.13 5897.13 5897.13 5897.11 5896.63 5890.55 5890.57 5896.63 5897.11 5897.13 5897.13 5897.13 5854.8 5897.13 5897.13 5897.13 5897.13 5897.12 5897.13 5897.09 5896.85 5892.64 5896.31 5868.58 5888.18 
        </DataArray>
        <DataArray type="Float32" Name="F0_Temperature_SG_co2liq_mod.xml" format="ascii">
41.7836 41.7822 41.8019 41.7893 42.4 42.3987 41.9361 41.9423 42.4094 42.4157 42.3484 42.3484 42.4536 42.4478 41.7806 41.7809 42.3469 42.3784 42.1924 42.2295 42.2311 42.1845 41.7807 41.7807 42.3214 42.3215 41.7807 41.7807 41.7807 41.7807 41.7807 41.7807 41.8693 41.895 41.7807 41.7807 41.7807 41.7807 41.7807 41.651 41.651 41.7807 41.7807 41.7806 41.7791 41.7594 41.7595 41.7791 41.7806 41.7807 41.7807 41.7807 41.6172 41.7807 41.7807 41.7807 41.7807 41.7806 41.7807 41.7806 41.7798 41.7663 41.7781 41.6785 41.7514 
        </DataArray>
        <DataArray type="Float32" Name="F0_Mass fraction_SG_co2liq_mod.xml" format="ascii">
9.556e-09 9.57336e-09 9.31504e-09 9.4804e-09 2.64793e-09 2.65636e-09 7.71397e-09 7.64533e-09 2.61566e-09 2.57464e-09 2.80291e-09 2.80302e-09 2.19903e-09 2.2349e-09 9.59488e-09 9.59123e-09 3.46246e-09 3.21168e-09 5.13038e-09 4.6232e-09 4.60908e-09 5.18197e-09 9.59444e-09 9.59446e-09 3.54882e-09 3.54863e-09 9.5944e-09 9.5944e-09 9.5944e-09 9.5944e-09 9.59446e-09 9.5944e-09 8.50516e-09 8.2084e-09 9.5944e-09 9.5944e-09 9.5944e-09 9.5944e-09 9.5944e-09 1.1467e-08 1.14668e-08 9.5944e-09 9.59441e-09 9.59515e-09 9.61546e-09 9.8825e-09 9.88137e-09 9.61558e-09 9.59516e-09 9.59441e-09 9.5944e-09 9.5944e-09 1.2233e-08 9.5944e-09 9.5944e-09 9.5944e-09 9.59441e-09 9.59474e-09 9.59443e-09 9.5959e-09 9.60616e-09 9.78815e-09 9.62914e-09 1.10447e-08 9.9935e-09 
        </DataArray>
        <DataArray type="Float32" Name="F1_Alpha_SG_co2gas_mod.xml" format="ascii">
1 1 1 1 1 1 1 1 1 1 1 1 1 1 1 1 1 1 1 1 1 1 1 1 1 1 1 1 1 1 1 1 1 1 1 1 1 1 1 1 1 1 1 1 1 1 1 1 1 1 1 1 1 1 1 1 1 1 1 1 1 1 1 1 1 
        </DataArray>
        <DataArray type="Float32" Name="F1_Density_SG_co2gas_mod.xml" format="ascii">
106.572 106.375 109.38 107.437 402.82 401.465 132.585 133.802 408.046 414.951 379.48 379.464 491.33 482.89 106.132 106.174 303.327 328.195 201.538 224.462 225.174 199.471 106.137 106.137 295.669 295.685 106.138 106.138 106.138 106.138 106.137 106.138 120.005 124.433 106.138 106.138 106.138 106.138 106.138 88.544 88.546 106.138 106.138 106.129 105.901 102.99 103.002 105.9 106.129 106.138 106.138 106.138 82.9207 106.138 106.138 106.138 106.138 106.134 106.137 106.121 106.005 104 105.748 91.9827 101.826 
        </DataArray>
        <DataArray type="Float32" Name="F1_Temperature_SG_co2gas_mod.xml" format="ascii">
466.501 466.448 467.304 466.761 382.894 382.858 474.716 475.098 387.747 387.983 357.147 357.146 367.364 366.834 466.384 466.395 445.216 444.224 485.391 468.121 468.122 483.155 466.385 466.385 430.734 430.88 466.385 466.385 466.385 466.385 466.385 466.385 472.247 474.06 466.385 466.385 466.385 466.385 466.385 461.638 461.639 466.385 466.385 466.383 466.323 465.553 465.555 466.323 466.383 466.385 466.385 466.385 469.411 466.385 466.385 466.385 466.385 466.384 466.385 466.381 466.35 465.819 466.283 462.53 465.317 
        </DataArray>
        <DataArray type="Float32" Name="F1_Mass fraction_SG_co2gas_mod.xml" format="ascii">
1 1 1 1 1 1 1 1 1 1 1 1 1 1 1 1 1 1 1 1 1 1 1 1 1 1 1 1 1 1 1 1 1 1 1 1 1 1 1 1 1 1 1 1 1 1 1 1 1 1 1 1 1 1 1 1 1 1 1 1 1 1 1 1 1 
        </DataArray>
        <DataArray type="Float32" Name="Density_Mixture" format="ascii">
106.572 106.375 109.38 107.437 402.82 401.465 132.585 133.802 408.046 414.951 379.48 379.464 491.33 482.89 106.132 106.174 303.327 328.195 201.538 224.462 225.174 199.471 106.137 106.137 295.669 295.685 106.138 106.138 106.138 106.138 106.137 106.138 120.005 124.433 106.138 106.138 106.138 106.138 106.138 88.544 88.546 106.138 106.138 106.129 105.901 102.99 103.002 105.9 106.129 106.138 106.138 106.138 82.9207 106.138 106.138 106.138 106.138 106.134 106.137 106.121 106.005 104 105.748 91.9827 101.826 
        </DataArray>
        <DataArray type="Float32" Name="Pressure_Mixture" format="ascii">
6.30292e+06 6.28884e+06 6.50502e+06 6.36532e+06 2.14167e+07 2.13396e+07 8.21519e+06 8.30611e+06 2.19924e+07 2.23937e+07 1.87116e+07 1.87108e+07 2.52139e+07 2.47285e+07 6.27147e+06 6.27441e+06 1.86417e+07 2.01955e+07 1.32595e+07 1.43079e+07 1.43561e+07 1.30499e+07 6.27183e+06 6.27181e+06 1.75295e+07 1.75368e+07 6.27186e+06 6.27186e+06 6.27185e+06 6.27186e+06 6.27181e+06 6.27186e+06 7.30875e+06 7.64379e+06 6.27186e+06 6.27186e+06 6.27186e+06 6.27186e+06 6.27186e+06 5.02457e+06 5.02472e+06 6.27186e+06 6.27185e+06 6.27126e+06 6.25494e+06 6.04716e+06 6.04799e+06 6.25485e+06 6.27124e+06 6.27185e+06 6.27186e+06 6.27186e+06 4.74239e+06 6.27186e+06 6.27186e+06 6.27186e+06 6.27185e+06 6.27158e+06 6.27183e+06 6.27065e+06 6.2624e+06 6.11916e+06 6.24401e+06 5.26598e+06 5.96534e+06 
        </DataArray>
        <DataArray type="Float32" Name="Velocity_Mixture" NumberOfComponents="3" format="ascii">
1.14103 -0.000990643 0 0.447377 0.0974715 0 6.68798 0.00811295 0 3.29812 -3.92173 0 313.786 5.51858 0 315.17 -6.19454 0 66.4679 -6.34061 0 69.8262 5.77451 0 305.82 43.6365 0 303.99 -41.8467 0 342.191 0.129725 0 342.191 -0.129466 0 299.749 -43.8164 0 300.696 47.0268 0 -0.011888 -0.0216719 0 0.0752205 -0.0502934 0 254.47 -44.6111 0 252.667 72.1419 0 178.417 -24.8594 0 203.878 -5.28837 0 202.833 5.6864 0 154.953 44.5069 0 -0.00412074 -0.0030916 0 -0.00103361 -0.00011884 0 258.861 -21.2561 0 259.959 24.0579 0 0 0 0 0 0 0 -8.36171e-05 -1.94129e-05 0 0.000144566 0.000269242 0 -0.0012419 0.000991098 0 0 0 0 24.7551 6.46298 0 47.2193 0.949385 0 0 0 0 0 0 0 0 0 0 0 0 0 0 0 0 15.6033 -1.04427 0 15.6041 1.04776 0 0 0 0 4.31914e-05 -8.37772e-05 0 0.00385577 -0.00339182 0 0.119747 -0.0657631 0 1.83892 -0.50848 0 1.90462 0.483131 0 0.12759 0.0633436 0 0.00422828 0.00332027 0 5.40992e-05 8.21305e-05 0 0 0 0 0 0 0 56.636 0.00388103 0 0 0 0 0 0 0 0 0 0 1.76055e-05 0 0 0.00290694 0.000415959 0 0.00155708 -5.10277e-05 0 0.0736866 -0.00221498 0 0.115551 0.0123381 0 2.37655 0.160057 0 1.76635 -0.0439825 0 24.4935 -0.00638991 0 19.0961 -0.32857 0 
        </DataArray>
        <DataArray type="Float32" Name="gradRho" format="ascii">
0.873801 0.34549 6.45141 6.48976 31.1476 32.1637 40.0295 39.9855 45.8301 58.1203 16.2115 15.2784 18.0324 17.6698 0.0585967 0.127171 57.2861 52.9613 58.3406 54.4856 54.7605 66.5879 0.0123024 0.00176523 58.6788 59.3683 5.8996e-07 1.69297e-05 0.00022522 0.000268359 0.000326445 1.80953e-05 29.3331 28.8334 6.11844e-09 6.35532e-09 2.80514e-10 3.60795e-09 2.79252e-09 0.861998 0.862688 6.52446e-07 3.9684e-05 0.00137829 0.0224159 0.161624 0.16324 0.0220257 0.00131625 3.63249e-05 5.51758e-07 1.09829e-09 0.810877 1.28443e-07 2.13008e-07 1.87761e-05 2.86544e-05 0.00166691 0.00123961 0.0411932 0.0504875 0.708389 0.6265 3.77554 3.55755 
        </DataArray>
      </CellData>
    </Piece>
  </UnstructuredGrid>
</VTKFile>
