<?xml version="1.0"?>
<VTKFile type="UnstructuredGrid" version="0.1" byte_order="LittleEndian">
  <UnstructuredGrid>
    <Piece NumberOfPoints="50" NumberOfCells="65">
      <Points>
        <DataArray type="Float32" NumberOfComponents="3" format="ascii">
          0 5 0 0 -5 0 15 0.2 0 15 -0.2 0 35 0.2 0 35 -0.2 0 2.14286 4.31429 0 4.28571 3.62857 0 6.42857 2.94286 0 8.57143 2.25714 0 10.7143 1.57143 0 12.8571 0.885714 0 17.8571 0.2 0 20.7143 0.2 0 23.5714 0.2 0 26.4286 0.2 0 29.2857 0.2 0 32.1429 0.2 0 32.1429 -0.2 0 29.2857 -0.2 0 26.4286 -0.2 0 23.5714 -0.2 0 20.7143 -0.2 0 17.8571 -0.2 0 12.8571 -0.885714 0 10.7143 -1.57143 0 8.57143 -2.25714 0 6.42857 -2.94286 0 4.28571 -3.62857 0 2.14286 -4.31429 0 0 -2.5 0 0 -6.16307e-12 0 0 2.5 0 3.95974 -5.7158e-13 0 13.9286 -3.66374e-15 0 6.61813 2.81487e-12 0 2.86365 2.0434 0 2.86365 -2.0434 0 9.43036 1.987e-12 0 11.3926 2.79508e-14 0 4.83116 1.72297 0 4.83116 -1.72297 0 1.90629 -3.21031e-12 0 33.5714 0 0 16.4286 -1.80625e-18 0 25 6.93889e-18 0 19.2857 -6.93889e-18 0 30.7143 0 0 22.1429 0 0 27.8571 0 0 
        </DataArray>
      </Points>
      <Cells>
        <DataArray type="Int32" Name="connectivity" format="ascii">
          8 9 35 26 27 35 8 35 40 27 41 35 30 42 37 32 36 42 33 40 35 33 35 41 29 30 37 6 36 32 30 31 42 31 32 42 0 6 32 30 29 1 26 35 38 9 38 35 6 7 36 28 29 37 7 40 36 33 41 37 33 36 40 28 37 41 9 10 38 25 26 38 33 42 36 33 37 42 11 34 24 24 25 39 10 11 39 25 38 39 10 39 38 11 24 39 27 28 41 7 8 40 2 34 11 3 24 34 2 3 34 2 44 12 3 23 44 4 17 43 5 43 18 12 46 13 13 48 14 14 45 15 15 49 16 16 47 17 18 47 19 19 49 20 20 45 21 21 48 22 22 46 23 2 3 44 4 43 5 12 44 23 12 23 46 13 46 22 13 22 48 14 21 45 14 48 21 15 45 20 15 20 49 16 19 47 16 49 19 17 18 43 17 47 18 
        </DataArray>
        <DataArray type="Int32" Name="offsets" format="ascii">
          3 6 9 12 15 18 21 24 27 30 33 36 39 42 45 48 51 54 57 60 63 66 69 72 75 78 81 84 87 90 93 96 99 102 105 108 111 114 117 120 123 126 129 132 135 138 141 144 147 150 153 156 159 162 165 168 171 174 177 180 183 186 189 192 195 
        </DataArray>
        <DataArray type="UInt8" Name="types" format="ascii">
          5 5 5 5 5 5 5 5 5 5 5 5 5 5 5 5 5 5 5 5 5 5 5 5 5 5 5 5 5 5 5 5 5 5 5 5 5 5 5 5 5 5 5 5 5 5 5 5 5 5 5 5 5 5 5 5 5 5 5 5 5 5 5 5 5 
        </DataArray>
      </Cells>
      <CellData>
        <DataArray type="Float32" Name="F0_Alpha_SG_co2liq_mod.xml" format="ascii">
1.72682e-10 1.72682e-10 1.72683e-10 1.72683e-10 1.66604e-10 1.6669e-10 1.72656e-10 1.72655e-10 1.67229e-10 1.66988e-10 1.67826e-10 1.67826e-10 1.65588e-10 1.65801e-10 1.72682e-10 1.72682e-10 1.7063e-10 1.69759e-10 1.72267e-10 1.71976e-10 1.71924e-10 1.72582e-10 1.72682e-10 1.72682e-10 1.70231e-10 1.70222e-10 1.72682e-10 1.72682e-10 1.72682e-10 1.72682e-10 1.72682e-10 1.72682e-10 1.72692e-10 1.72677e-10 1.72682e-10 1.72682e-10 1.72682e-10 1.72682e-10 1.72682e-10 1.73051e-10 1.73051e-10 1.72682e-10 1.72682e-10 1.72682e-10 1.72683e-10 1.72713e-10 1.72713e-10 1.72683e-10 1.72682e-10 1.72682e-10 1.72682e-10 1.72682e-10 1.73126e-10 1.72682e-10 1.72682e-10 1.72682e-10 1.72682e-10 1.72682e-10 1.72682e-10 1.72682e-10 1.72682e-10 1.72699e-10 1.72684e-10 1.72955e-10 1.72734e-10 
        </DataArray>
        <DataArray type="Float32" Name="F0_Density_SG_co2liq_mod.xml" format="ascii">
5897.13 5897.13 5897.09 5897.07 6329.51 6324.63 5898.77 5898.86 6277.06 6289.32 6317.08 6317.11 6453.46 6439.62 5897.13 5897.13 6021.85 6072.77 5922.77 5939.97 5943.04 5903.18 5897.13 5897.13 6040.53 6041.13 5897.13 5897.13 5897.13 5897.13 5897.13 5897.13 5896.47 5897.45 5897.13 5897.13 5897.13 5897.13 5897.13 5872.82 5872.82 5897.13 5897.13 5897.13 5897.08 5895.13 5895.12 5897.08 5897.13 5897.13 5897.13 5897.13 5864.59 5897.13 5897.13 5897.13 5897.13 5897.13 5897.13 5897.13 5897.11 5896.05 5897.01 5879.3 5893.79 
        </DataArray>
        <DataArray type="Float32" Name="F0_Temperature_SG_co2liq_mod.xml" format="ascii">
41.7807 41.7807 41.7806 41.7805 42.3416 42.3388 41.7858 41.7861 42.3093 42.3173 42.3344 42.3344 42.4026 42.3967 41.7807 41.7807 42.0513 42.1224 41.854 41.8964 41.9035 41.7993 41.7807 41.7807 42.0791 42.08 41.7807 41.7807 41.7807 41.7807 41.7807 41.7807 41.7786 41.7817 41.7807 41.7807 41.7807 41.7807 41.7807 41.6955 41.6955 41.7807 41.7807 41.7807 41.7805 41.7743 41.7743 41.7805 41.7807 41.7807 41.7807 41.7807 41.6618 41.7807 41.7807 41.7807 41.7807 41.7807 41.7807 41.7807 41.7806 41.7773 41.7803 41.7201 41.77 
        </DataArray>
        <DataArray type="Float32" Name="F0_Mass fraction_SG_co2liq_mod.xml" format="ascii">
9.59451e-09 9.59438e-09 9.59599e-09 9.59692e-09 3.22225e-09 3.23927e-09 9.52608e-09 9.52259e-09 3.5317e-09 3.49082e-09 2.95691e-09 2.95682e-09 2.57892e-09 2.6151e-09 9.5944e-09 9.59442e-09 6.37397e-09 5.66239e-09 8.65802e-09 8.15987e-09 8.07568e-09 9.36087e-09 9.5944e-09 9.5944e-09 6.18863e-09 6.17764e-09 9.5944e-09 9.5944e-09 9.5944e-09 9.5944e-09 9.5944e-09 9.5944e-09 9.62225e-09 9.58103e-09 9.5944e-09 9.5944e-09 9.5944e-09 9.5944e-09 9.5944e-09 1.07926e-08 1.07926e-08 9.5944e-09 9.5944e-09 9.59442e-09 9.59663e-09 9.67943e-09 9.67981e-09 9.5967e-09 9.59443e-09 9.5944e-09 9.5944e-09 9.5944e-09 1.14802e-08 9.5944e-09 9.5944e-09 9.5944e-09 9.5944e-09 9.59441e-09 9.5944e-09 9.59447e-09 9.59527e-09 9.64017e-09 9.59944e-09 1.04334e-08 9.7381e-09 
        </DataArray>
        <DataArray type="Float32" Name="F1_Alpha_SG_co2gas_mod.xml" format="ascii">
1 1 1 1 1 1 1 1 1 1 1 1 1 1 1 1 1 1 1 1 1 1 1 1 1 1 1 1 1 1 1 1 1 1 1 1 1 1 1 1 1 1 1 1 1 1 1 1 1 1 1 1 1 1 1 1 1 1 1 1 1 1 1 1 1 
        </DataArray>
        <DataArray type="Float32" Name="F1_Density_SG_co2gas_mod.xml" format="ascii">
106.136 106.138 106.12 106.109 327.263 325.459 106.913 106.953 297.223 300.857 358.541 358.552 414.365 408.281 106.138 106.138 161.203 182.062 117.845 125.189 126.522 108.834 106.138 106.138 166.157 166.461 106.138 106.138 106.138 106.138 106.138 106.138 105.825 106.289 106.138 106.138 106.138 106.138 106.138 94.1657 94.1663 106.138 106.138 106.137 106.113 105.189 105.185 106.112 106.137 106.138 106.138 106.138 88.44 106.138 106.138 106.138 106.138 106.138 106.138 106.137 106.128 105.625 106.081 97.4616 104.544 
        </DataArray>
        <DataArray type="Float32" Name="F1_Temperature_SG_co2gas_mod.xml" format="ascii">
466.385 466.385 466.381 466.378 407.601 407.184 466.599 466.61 417.144 419.443 365.851 365.852 374.759 374.405 466.385 466.385 471.768 472.568 469.636 472.203 472.47 467.758 466.385 466.385 479.973 479.809 466.385 466.385 466.385 466.385 466.385 466.385 466.303 466.426 466.385 466.385 466.385 466.385 466.385 463.207 463.207 466.385 466.385 466.385 466.379 466.135 466.134 466.379 466.385 466.385 466.385 466.385 469.464 466.385 466.385 466.385 466.385 466.385 466.385 466.385 466.383 466.25 466.37 464.057 465.984 
        </DataArray>
        <DataArray type="Float32" Name="F1_Mass fraction_SG_co2gas_mod.xml" format="ascii">
1 1 1 1 1 1 1 1 1 1 1 1 1 1 1 1 1 1 1 1 1 1 1 1 1 1 1 1 1 1 1 1 1 1 1 1 1 1 1 1 1 1 1 1 1 1 1 1 1 1 1 1 1 1 1 1 1 1 1 1 1 1 1 1 1 
        </DataArray>
        <DataArray type="Float32" Name="Density_Mixture" format="ascii">
106.136 106.138 106.12 106.109 327.263 325.459 106.913 106.953 297.223 300.857 358.541 358.552 414.365 408.281 106.138 106.138 161.203 182.062 117.845 125.189 126.522 108.834 106.138 106.138 166.157 166.461 106.138 106.138 106.138 106.138 106.138 106.138 105.825 106.289 106.138 106.138 106.138 106.138 106.138 94.1657 94.1663 106.138 106.138 106.137 106.113 105.189 105.185 106.112 106.137 106.138 106.138 106.138 88.44 106.138 106.138 106.138 106.138 106.138 106.138 106.137 106.128 105.625 106.081 97.4616 104.544 
        </DataArray>
        <DataArray type="Float32" Name="Pressure_Mixture" format="ascii">
6.27177e+06 6.27187e+06 6.27058e+06 6.26983e+06 1.84026e+07 1.82766e+07 6.32743e+06 6.33029e+06 1.70422e+07 1.73614e+07 1.80815e+07 1.80822e+07 2.15685e+07 2.12179e+07 6.27186e+06 6.27184e+06 1.01109e+07 1.15549e+07 7.11674e+06 7.662e+06 7.75788e+06 6.47531e+06 6.27186e+06 6.27186e+06 1.0646e+07 1.06631e+07 6.27186e+06 6.27186e+06 6.27186e+06 6.27186e+06 6.27186e+06 6.27186e+06 6.24951e+06 6.28266e+06 6.27186e+06 6.27186e+06 6.27186e+06 6.27186e+06 6.27186e+06 5.42119e+06 5.42123e+06 6.27186e+06 6.27186e+06 6.27184e+06 6.27006e+06 6.20405e+06 6.20375e+06 6.27001e+06 6.27184e+06 6.27186e+06 6.27186e+06 6.27186e+06 5.11771e+06 6.27186e+06 6.27186e+06 6.27186e+06 6.27186e+06 6.27185e+06 6.27186e+06 6.2718e+06 6.27115e+06 6.2352e+06 6.26781e+06 5.65392e+06 6.15829e+06 
        </DataArray>
        <DataArray type="Float32" Name="Velocity_Mixture" NumberOfComponents="3" format="ascii">
-0.00344311 0.000184429 0 0.000292354 0.000296951 0 -0.0206037 0.0858054 0 -0.0378146 -0.096917 0 276.97 -5.39501 0 277.966 7.36447 0 1.85038 -0.602726 0 1.9581 0.636394 0 266.761 45.8874 0 263.544 -38.7686 0 334.89 0.333686 0 334.885 -0.336438 0 305.944 -39.5792 0 302.862 51.8065 0 0.000176824 0.000182163 0 -0.000429848 0.000319757 0 123.046 -10.3985 0 119.638 42.889 0 28.5698 -6.64723 0 49.3107 -10.723 0 48.6463 9.42779 0 4.4604 -7.19006 0 3.60937e-06 0 0 1.71565e-06 0 0 135.802 -20.8213 0 136.804 22.4891 0 0 0 0 0 0 0 0 0 0 0 0 0 0 0 0 0 0 0 -0.419571 -0.281124 0 -0.0182155 -0.18173 0 0 0 0 0 0 0 0 0 0 0 0 0 0 0 0 8.39864 -1.31516 0 8.39836 1.3157 0 0 0 0 0 0 0 8.87836e-05 -0.000178332 0 0.0108301 -0.0123041 0 0.462363 -0.277173 0 0.499308 0.265099 0 0.0121062 0.0121171 0 0.000107568 0.000181682 0 0 0 0 0 0 0 0 0 0 43.7115 0.00051862 0 0 0 0 0 0 0 0 0 0 0 0 0 3.32496e-05 0 0 2.4143e-07 0 0 0.00301731 -0.000110815 0 0.00672272 0.00116238 0 0.41167 0.057938 0 0.241075 -0.00794077 0 10.1449 -0.00189676 0 7.30199 -0.207777 0 
        </DataArray>
        <DataArray type="Float32" Name="gradRho" format="ascii">
0.00495531 0.00822799 0.194351 0.290577 61.0503 61.0249 7.69635 7.18121 63.9998 73.7394 21.724 22.9828 26.7979 26.2195 0.000109547 0.00040112 54.4779 52.4843 16.2145 21.582 20.311 20.6668 6.29869e-05 1.96308e-05 66.9411 68.001 0 4.17589e-08 2.77038e-07 6.67612e-07 3.69884e-06 1.92563e-09 1.0226 4.06392 0 0 0 0 0 0.902356 0.902575 2.61852e-09 7.90775e-07 9.77395e-05 0.00539777 0.0946819 0.0934765 0.00509442 8.95153e-05 6.82328e-07 2.15701e-09 0 0.825536 0 5.18147e-10 8.65896e-08 1.82194e-07 4.44162e-05 2.49628e-05 0.0032218 0.00469238 0.201823 0.162705 2.79555 2.54058 
        </DataArray>
      </CellData>
    </Piece>
  </UnstructuredGrid>
</VTKFile>
