<?xml version="1.0"?>
<VTKFile type="UnstructuredGrid" version="0.1" byte_order="LittleEndian">
  <UnstructuredGrid>
    <Piece NumberOfPoints="50" NumberOfCells="65">
      <Points>
        <DataArray type="Float32" NumberOfComponents="3" format="ascii">
          0 5 0 0 -5 0 15 0.2 0 15 -0.2 0 35 0.2 0 35 -0.2 0 2.14286 4.31429 0 4.28571 3.62857 0 6.42857 2.94286 0 8.57143 2.25714 0 10.7143 1.57143 0 12.8571 0.885714 0 17.8571 0.2 0 20.7143 0.2 0 23.5714 0.2 0 26.4286 0.2 0 29.2857 0.2 0 32.1429 0.2 0 32.1429 -0.2 0 29.2857 -0.2 0 26.4286 -0.2 0 23.5714 -0.2 0 20.7143 -0.2 0 17.8571 -0.2 0 12.8571 -0.885714 0 10.7143 -1.57143 0 8.57143 -2.25714 0 6.42857 -2.94286 0 4.28571 -3.62857 0 2.14286 -4.31429 0 0 -2.5 0 0 -6.16307e-12 0 0 2.5 0 3.95974 -5.7158e-13 0 13.9286 -3.66374e-15 0 6.61813 2.81487e-12 0 2.86365 2.0434 0 2.86365 -2.0434 0 9.43036 1.987e-12 0 11.3926 2.79508e-14 0 4.83116 1.72297 0 4.83116 -1.72297 0 1.90629 -3.21031e-12 0 33.5714 0 0 16.4286 -1.80625e-18 0 25 6.93889e-18 0 19.2857 -6.93889e-18 0 30.7143 0 0 22.1429 0 0 27.8571 0 0 
        </DataArray>
      </Points>
      <Cells>
        <DataArray type="Int32" Name="connectivity" format="ascii">
          8 9 35 26 27 35 8 35 40 27 41 35 30 42 37 32 36 42 33 40 35 33 35 41 29 30 37 6 36 32 30 31 42 31 32 42 0 6 32 30 29 1 26 35 38 9 38 35 6 7 36 28 29 37 7 40 36 33 41 37 33 36 40 28 37 41 9 10 38 25 26 38 33 42 36 33 37 42 11 34 24 24 25 39 10 11 39 25 38 39 10 39 38 11 24 39 27 28 41 7 8 40 2 34 11 3 24 34 2 3 34 2 44 12 3 23 44 4 17 43 5 43 18 12 46 13 13 48 14 14 45 15 15 49 16 16 47 17 18 47 19 19 49 20 20 45 21 21 48 22 22 46 23 2 3 44 4 43 5 12 44 23 12 23 46 13 46 22 13 22 48 14 21 45 14 48 21 15 45 20 15 20 49 16 19 47 16 49 19 17 18 43 17 47 18 
        </DataArray>
        <DataArray type="Int32" Name="offsets" format="ascii">
          3 6 9 12 15 18 21 24 27 30 33 36 39 42 45 48 51 54 57 60 63 66 69 72 75 78 81 84 87 90 93 96 99 102 105 108 111 114 117 120 123 126 129 132 135 138 141 144 147 150 153 156 159 162 165 168 171 174 177 180 183 186 189 192 195 
        </DataArray>
        <DataArray type="UInt8" Name="types" format="ascii">
          5 5 5 5 5 5 5 5 5 5 5 5 5 5 5 5 5 5 5 5 5 5 5 5 5 5 5 5 5 5 5 5 5 5 5 5 5 5 5 5 5 5 5 5 5 5 5 5 5 5 5 5 5 5 5 5 5 5 5 5 5 5 5 5 5 
        </DataArray>
      </Cells>
      <CellData>
        <DataArray type="Float32" Name="F0_Alpha_SG_co2liq_mod.xml" format="ascii">
1.72682e-10 1.72682e-10 1.72683e-10 1.72683e-10 1.66672e-10 1.66752e-10 1.72661e-10 1.72659e-10 1.67331e-10 1.67104e-10 1.67836e-10 1.67836e-10 1.65655e-10 1.65863e-10 1.72682e-10 1.72682e-10 1.70754e-10 1.69919e-10 1.72306e-10 1.72037e-10 1.7199e-10 1.72609e-10 1.72682e-10 1.72682e-10 1.7037e-10 1.70361e-10 1.72682e-10 1.72682e-10 1.72682e-10 1.72682e-10 1.72682e-10 1.72682e-10 1.72693e-10 1.72678e-10 1.72682e-10 1.72682e-10 1.72682e-10 1.72682e-10 1.72682e-10 1.73045e-10 1.73045e-10 1.72682e-10 1.72682e-10 1.72682e-10 1.72683e-10 1.72712e-10 1.72712e-10 1.72683e-10 1.72682e-10 1.72682e-10 1.72682e-10 1.72682e-10 1.73121e-10 1.72682e-10 1.72682e-10 1.72682e-10 1.72682e-10 1.72682e-10 1.72682e-10 1.72682e-10 1.72682e-10 1.72698e-10 1.72684e-10 1.7295e-10 1.72732e-10 
        </DataArray>
        <DataArray type="Float32" Name="F0_Density_SG_co2liq_mod.xml" format="ascii">
5897.13 5897.13 5897.08 5897.07 6323.19 6318.6 5898.48 5898.56 6269.22 6280.65 6315.56 6315.59 6448.08 6434.57 5897.13 5897.13 6014.33 6063.16 5920.45 5936.37 5939.19 5901.55 5897.13 5897.13 6032.4 6033.03 5897.13 5897.13 5897.13 5897.13 5897.13 5897.13 5896.44 5897.36 5897.13 5897.13 5897.13 5897.13 5897.13 5873.2 5873.21 5897.13 5897.13 5897.13 5897.08 5895.23 5895.22 5897.08 5897.13 5897.13 5897.13 5897.13 5864.94 5897.13 5897.13 5897.13 5897.13 5897.13 5897.13 5897.13 5897.11 5896.11 5897.02 5879.68 5893.92 
        </DataArray>
        <DataArray type="Float32" Name="F0_Temperature_SG_co2liq_mod.xml" format="ascii">
41.7807 41.7807 41.7805 41.7805 42.338 42.3353 41.7849 41.7852 42.304 42.3116 42.3335 42.3335 42.4003 42.3945 41.7807 41.7807 42.0395 42.1101 41.8479 41.8879 41.8946 41.7943 41.7807 41.7807 42.0673 42.0682 41.7807 41.7807 41.7807 41.7807 41.7807 41.7807 41.7785 41.7814 41.7807 41.7807 41.7807 41.7807 41.7807 41.697 41.697 41.7807 41.7807 41.7807 41.7805 41.7747 41.7746 41.7805 41.7807 41.7807 41.7807 41.7807 41.6633 41.7807 41.7807 41.7807 41.7807 41.7807 41.7807 41.7807 41.7806 41.7775 41.7803 41.7215 41.7705 
        </DataArray>
        <DataArray type="Float32" Name="F0_Mass fraction_SG_co2liq_mod.xml" format="ascii">
9.59451e-09 9.59438e-09 9.59633e-09 9.59678e-09 3.25902e-09 3.27543e-09 9.53811e-09 9.53481e-09 3.57982e-09 3.54127e-09 2.96598e-09 2.96589e-09 2.59612e-09 2.63196e-09 9.5944e-09 9.59442e-09 6.50213e-09 5.78747e-09 8.73307e-09 8.25909e-09 8.17923e-09 9.4225e-09 9.5944e-09 9.5944e-09 6.31194e-09 6.3004e-09 9.5944e-09 9.5944e-09 9.5944e-09 9.5944e-09 9.5944e-09 9.5944e-09 9.62338e-09 9.58462e-09 9.5944e-09 9.5944e-09 9.5944e-09 9.5944e-09 9.5944e-09 1.07705e-08 1.07704e-08 9.5944e-09 9.5944e-09 9.59442e-09 9.59642e-09 9.67515e-09 9.67555e-09 9.59649e-09 9.59442e-09 9.5944e-09 9.5944e-09 9.5944e-09 1.14555e-08 9.5944e-09 9.5944e-09 9.5944e-09 9.5944e-09 9.59441e-09 9.5944e-09 9.59446e-09 9.59518e-09 9.63737e-09 9.59904e-09 1.04136e-08 9.73225e-09 
        </DataArray>
        <DataArray type="Float32" Name="F1_Alpha_SG_co2gas_mod.xml" format="ascii">
1 1 1 1 1 1 1 1 1 1 1 1 1 1 1 1 1 1 1 1 1 1 1 1 1 1 1 1 1 1 1 1 1 1 1 1 1 1 1 1 1 1 1 1 1 1 1 1 1 1 1 1 1 1 1 1 1 1 1 1 1 1 1 1 1 
        </DataArray>
        <DataArray type="Float32" Name="F1_Density_SG_co2gas_mod.xml" format="ascii">
106.136 106.138 106.116 106.111 323.378 321.68 106.775 106.813 293.041 296.369 357.38 357.391 411.443 405.499 106.138 106.138 157.944 178.013 116.812 123.654 124.887 108.109 106.138 106.138 162.825 163.131 106.138 106.138 106.138 106.138 106.138 106.138 105.812 106.248 106.138 106.138 106.138 106.138 106.138 94.3622 94.3627 106.138 106.138 106.138 106.115 105.236 105.232 106.114 106.138 106.138 106.138 106.138 88.6338 106.138 106.138 106.138 106.138 106.138 106.138 106.137 106.129 105.656 106.086 97.6498 104.608 
        </DataArray>
        <DataArray type="Float32" Name="F1_Temperature_SG_co2gas_mod.xml" format="ascii">
466.385 466.385 466.38 466.378 409.009 408.617 466.56 466.57 418.269 420.53 366.278 366.279 375.133 374.79 466.385 466.385 471.992 472.859 469.362 471.754 472.003 467.412 466.385 466.385 479.936 479.799 466.385 466.385 466.385 466.385 466.385 466.385 466.3 466.415 466.385 466.385 466.385 466.385 466.385 463.261 463.261 466.385 466.385 466.385 466.379 466.148 466.146 466.379 466.385 466.385 466.385 466.385 469.446 466.385 466.385 466.385 466.385 466.385 466.385 466.385 466.383 466.258 466.372 464.108 465.999 
        </DataArray>
        <DataArray type="Float32" Name="F1_Mass fraction_SG_co2gas_mod.xml" format="ascii">
1 1 1 1 1 1 1 1 1 1 1 1 1 1 1 1 1 1 1 1 1 1 1 1 1 1 1 1 1 1 1 1 1 1 1 1 1 1 1 1 1 1 1 1 1 1 1 1 1 1 1 1 1 1 1 1 1 1 1 1 1 1 1 1 1 
        </DataArray>
        <DataArray type="Float32" Name="Density_Mixture" format="ascii">
106.136 106.138 106.116 106.111 323.378 321.68 106.775 106.813 293.041 296.369 357.38 357.391 411.443 405.499 106.138 106.138 157.944 178.013 116.812 123.654 124.887 108.109 106.138 106.138 162.825 163.131 106.138 106.138 106.138 106.138 106.138 106.138 105.812 106.248 106.138 106.138 106.138 106.138 106.138 94.3622 94.3627 106.138 106.138 106.138 106.115 105.236 105.232 106.114 106.138 106.138 106.138 106.138 88.6338 106.138 106.138 106.138 106.138 106.138 106.138 106.137 106.129 105.656 106.086 97.6498 104.608 
        </DataArray>
        <DataArray type="Float32" Name="Pressure_Mixture" format="ascii">
6.27177e+06 6.27187e+06 6.27031e+06 6.26994e+06 1.82395e+07 1.81208e+07 6.31755e+06 6.32026e+06 1.68376e+07 1.71358e+07 1.80422e+07 1.80429e+07 2.14324e+07 2.10899e+07 6.27186e+06 6.27185e+06 9.89366e+06 1.12858e+07 7.042e+06 7.54918e+06 7.63774e+06 6.42088e+06 6.27186e+06 6.27186e+06 1.04138e+07 1.04319e+07 6.27186e+06 6.27186e+06 6.27186e+06 6.27186e+06 6.27186e+06 6.27186e+06 6.2486e+06 6.27975e+06 6.27186e+06 6.27186e+06 6.27186e+06 6.27186e+06 6.27186e+06 5.43508e+06 5.43512e+06 6.27186e+06 6.27186e+06 6.27184e+06 6.27023e+06 6.20744e+06 6.20712e+06 6.27018e+06 6.27184e+06 6.27186e+06 6.27186e+06 6.27186e+06 5.13063e+06 6.27186e+06 6.27186e+06 6.27186e+06 6.27186e+06 6.27185e+06 6.27186e+06 6.27181e+06 6.27123e+06 6.23743e+06 6.26812e+06 5.66728e+06 6.16284e+06 
        </DataArray>
        <DataArray type="Float32" Name="Velocity_Mixture" NumberOfComponents="3" format="ascii">
-0.00335722 0.000162687 0 0.000391627 0.000283759 0 -0.0281046 0.0804757 0 -0.036786 -0.0828028 0 274.895 -5.8898 0 275.869 7.85008 0 1.51447 -0.507073 0 1.61396 0.541935 0 264.269 45.9496 0 261.001 -38.784 0 334.413 0.349575 0 334.408 -0.352293 0 305.843 -39.3555 0 302.612 51.9135 0 0.0001718 0.000171833 0 -0.000393967 0.000295316 0 117.553 -9.43274 0 114.224 41.4069 0 26.0501 -6.30846 0 45.4637 -10.2009 0 44.8578 9.02868 0 3.05319 -7.56232 0 1.00135e-07 0 0 0 0 0 130.155 -20.324 0 131.142 21.9469 0 0 0 0 0 0 0 0 0 0 0 0 0 0 0 0 0 0 0 -0.439446 -0.27383 0 -0.120392 -0.204109 0 0 0 0 0 0 0 0 0 0 0 0 0 0 0 0 8.20089 -1.32264 0 8.2006 1.3231 0 0 0 0 0 0 0 7.39075e-05 -0.000156587 0 0.00977784 -0.0114118 0 0.43652 -0.269324 0 0.472194 0.257625 0 0.0109551 0.011256 0 9.04886e-05 0.000159966 0 0 0 0 0 0 0 0 0 0 43.2088 0.000447641 0 0 0 0 0 0 0 0 0 0 0 0 0 2.55619e-05 0 0 0 0 0 0.00262968 -9.69383e-05 0 0.00595855 0.00104348 0 0.382467 0.0549612 0 0.221241 -0.00735298 0 9.77961 -0.00185332 0 7.00103 -0.201529 0 
        </DataArray>
        <DataArray type="Float32" Name="gradRho" format="ascii">
0.00607417 0.00776294 0.160995 0.256364 61.6324 61.6044 7.09545 6.61819 64.2269 73.5816 23.6154 24.8004 27.1677 26.55 0.000116038 0.000390571 53.6352 51.7584 15.24 20.4646 19.218 19.5165 5.82864e-05 1.99224e-05 66.2538 67.2462 0 4.51017e-08 2.09904e-07 2.95514e-07 3.26593e-06 1.38012e-09 0.77241 3.71254 0 0 0 0 0 0.904035 0.90424 2.33788e-09 6.43593e-07 8.69874e-05 0.00506394 0.0926774 0.0913918 0.0047708 7.93701e-05 5.53921e-07 1.94995e-09 0 0.825924 0 4.22026e-10 6.91313e-08 1.47907e-07 3.80982e-05 2.10124e-05 0.00288007 0.00423503 0.190899 0.153108 2.75127 2.49549 
        </DataArray>
      </CellData>
    </Piece>
  </UnstructuredGrid>
</VTKFile>
