<?xml version="1.0"?>
<VTKFile type="UnstructuredGrid" version="0.1" byte_order="LittleEndian">
  <UnstructuredGrid>
    <Piece NumberOfPoints="50" NumberOfCells="65">
      <Points>
        <DataArray type="Float32" NumberOfComponents="3" format="ascii">
          0 5 0 0 -5 0 15 0.2 0 15 -0.2 0 35 0.2 0 35 -0.2 0 2.14286 4.31429 0 4.28571 3.62857 0 6.42857 2.94286 0 8.57143 2.25714 0 10.7143 1.57143 0 12.8571 0.885714 0 17.8571 0.2 0 20.7143 0.2 0 23.5714 0.2 0 26.4286 0.2 0 29.2857 0.2 0 32.1429 0.2 0 32.1429 -0.2 0 29.2857 -0.2 0 26.4286 -0.2 0 23.5714 -0.2 0 20.7143 -0.2 0 17.8571 -0.2 0 12.8571 -0.885714 0 10.7143 -1.57143 0 8.57143 -2.25714 0 6.42857 -2.94286 0 4.28571 -3.62857 0 2.14286 -4.31429 0 0 -2.5 0 0 -6.16307e-12 0 0 2.5 0 3.95974 -5.7158e-13 0 13.9286 -3.66374e-15 0 6.61813 2.81487e-12 0 2.86365 2.0434 0 2.86365 -2.0434 0 9.43036 1.987e-12 0 11.3926 2.79508e-14 0 4.83116 1.72297 0 4.83116 -1.72297 0 1.90629 -3.21031e-12 0 33.5714 0 0 16.4286 -1.80625e-18 0 25 6.93889e-18 0 19.2857 -6.93889e-18 0 30.7143 0 0 22.1429 0 0 27.8571 0 0 
        </DataArray>
      </Points>
      <Cells>
        <DataArray type="Int32" Name="connectivity" format="ascii">
          8 9 35 26 27 35 8 35 40 27 41 35 30 42 37 32 36 42 33 40 35 33 35 41 29 30 37 6 36 32 30 31 42 31 32 42 0 6 32 30 29 1 26 35 38 9 38 35 6 7 36 28 29 37 7 40 36 33 41 37 33 36 40 28 37 41 9 10 38 25 26 38 33 42 36 33 37 42 11 34 24 24 25 39 10 11 39 25 38 39 10 39 38 11 24 39 27 28 41 7 8 40 2 34 11 3 24 34 2 3 34 2 44 12 3 23 44 4 17 43 5 43 18 12 46 13 13 48 14 14 45 15 15 49 16 16 47 17 18 47 19 19 49 20 20 45 21 21 48 22 22 46 23 2 3 44 4 43 5 12 44 23 12 23 46 13 46 22 13 22 48 14 21 45 14 48 21 15 45 20 15 20 49 16 19 47 16 49 19 17 18 43 17 47 18 
        </DataArray>
        <DataArray type="Int32" Name="offsets" format="ascii">
          3 6 9 12 15 18 21 24 27 30 33 36 39 42 45 48 51 54 57 60 63 66 69 72 75 78 81 84 87 90 93 96 99 102 105 108 111 114 117 120 123 126 129 132 135 138 141 144 147 150 153 156 159 162 165 168 171 174 177 180 183 186 189 192 195 
        </DataArray>
        <DataArray type="UInt8" Name="types" format="ascii">
          5 5 5 5 5 5 5 5 5 5 5 5 5 5 5 5 5 5 5 5 5 5 5 5 5 5 5 5 5 5 5 5 5 5 5 5 5 5 5 5 5 5 5 5 5 5 5 5 5 5 5 5 5 5 5 5 5 5 5 5 5 5 5 5 5 
        </DataArray>
      </Cells>
      <CellData>
        <DataArray type="Float32" Name="F0_Alpha_SG_co2liq_mod.xml" format="ascii">
1.72672e-10 1.72677e-10 1.72603e-10 1.72652e-10 1.65483e-10 1.6555e-10 1.7187e-10 1.71837e-10 1.65097e-10 1.64831e-10 1.67728e-10 1.67728e-10 1.6389e-10 1.64185e-10 1.72682e-10 1.72681e-10 1.66093e-10 1.65069e-10 1.69094e-10 1.68527e-10 1.68479e-10 1.69296e-10 1.72682e-10 1.72682e-10 1.66909e-10 1.66896e-10 1.72682e-10 1.72682e-10 1.72682e-10 1.72682e-10 1.72682e-10 1.72682e-10 1.72324e-10 1.72145e-10 1.72682e-10 1.72682e-10 1.72682e-10 1.72682e-10 1.72682e-10 1.73191e-10 1.73191e-10 1.72682e-10 1.72682e-10 1.72682e-10 1.72689e-10 1.72776e-10 1.72776e-10 1.72689e-10 1.72682e-10 1.72682e-10 1.72682e-10 1.72682e-10 1.73243e-10 1.72682e-10 1.72682e-10 1.72682e-10 1.72682e-10 1.72682e-10 1.72682e-10 1.72682e-10 1.72686e-10 1.72746e-10 1.72693e-10 1.731e-10 1.72811e-10 
        </DataArray>
        <DataArray type="Float32" Name="F0_Density_SG_co2liq_mod.xml" format="ascii">
5897.75 5897.46 5902.1 5899 6441.56 6437.18 5945.89 5947.85 6456.89 6474.13 6340.49 6340.45 6586.89 6567.57 5897.12 5897.18 6309.84 6373.41 6103.12 6146.04 6148.84 6092.75 5897.13 5897.13 6275.52 6276.1 5897.13 5897.13 5897.13 5897.13 5897.13 5897.13 5918.75 5929.35 5897.13 5897.13 5897.13 5897.13 5897.13 5862.98 5862.99 5897.13 5897.13 5897.12 5896.7 5891.08 5891.1 5896.7 5897.12 5897.13 5897.13 5897.13 5855.6 5897.13 5897.13 5897.13 5897.13 5897.12 5897.13 5897.1 5896.9 5893.06 5896.41 5869.46 5888.8 
        </DataArray>
        <DataArray type="Float32" Name="F0_Temperature_SG_co2liq_mod.xml" format="ascii">
41.7826 41.7817 41.796 41.7865 42.3975 42.3956 41.91 41.9144 42.404 42.411 42.3479 42.3478 42.4501 42.4441 41.7806 41.7808 42.33 42.3655 42.1586 42.2037 42.2065 42.1467 41.7807 41.7807 42.3082 42.3086 41.7807 41.7807 41.7807 41.7807 41.7807 41.7807 41.8434 41.8708 41.7807 41.7807 41.7807 41.7807 41.7807 41.6548 41.6548 41.7807 41.7807 41.7806 41.7793 41.7611 41.7612 41.7793 41.7806 41.7807 41.7807 41.7807 41.6211 41.7807 41.7807 41.7807 41.7807 41.7807 41.7807 41.7806 41.7799 41.7677 41.7784 41.6821 41.7535 
        </DataArray>
        <DataArray type="Float32" Name="F0_Mass fraction_SG_co2liq_mod.xml" format="ascii">
9.56862e-09 9.58059e-09 9.3921e-09 9.51711e-09 2.67397e-09 2.68625e-09 8.01162e-09 7.96212e-09 2.66613e-09 2.61999e-09 2.81016e-09 2.81027e-09 2.22472e-09 2.26123e-09 9.59474e-09 9.59245e-09 3.62489e-09 3.33636e-09 5.45322e-09 4.87934e-09 4.85519e-09 5.54777e-09 9.59442e-09 9.59444e-09 3.68529e-09 3.68385e-09 9.5944e-09 9.5944e-09 9.5944e-09 9.5944e-09 9.59443e-09 9.5944e-09 8.81317e-09 8.48598e-09 9.5944e-09 9.5944e-09 9.5944e-09 9.5944e-09 9.5944e-09 1.14084e-08 1.14082e-08 9.5944e-09 9.59441e-09 9.59499e-09 9.61238e-09 9.85851e-09 9.85757e-09 9.6125e-09 9.595e-09 9.59441e-09 9.5944e-09 9.5944e-09 1.21679e-08 9.5944e-09 9.5944e-09 9.5944e-09 9.5944e-09 9.59466e-09 9.59443e-09 9.59561e-09 9.60422e-09 9.76985e-09 9.62467e-09 1.09907e-08 9.96431e-09 
        </DataArray>
        <DataArray type="Float32" Name="F1_Alpha_SG_co2gas_mod.xml" format="ascii">
1 1 1 1 1 1 1 1 1 1 1 1 1 1 1 1 1 1 1 1 1 1 1 1 1 1 1 1 1 1 1 1 1 1 1 1 1 1 1 1 1 1 1 1 1 1 1 1 1 1 1 1 1 1 1 1 1 1 1 1 1 1 1 1 1 
        </DataArray>
        <DataArray type="Float32" Name="F1_Density_SG_co2gas_mod.xml" format="ascii">
106.429 106.294 108.466 107.015 398.647 396.715 127.555 128.365 399.834 407.305 378.44 378.423 485.241 476.862 106.134 106.16 289.118 315.329 189.246 212.277 213.369 185.926 106.137 106.137 284.222 284.337 106.138 106.138 106.138 106.138 106.137 106.138 115.729 120.281 106.138 106.138 106.138 106.138 106.138 89.0059 89.0078 106.138 106.138 106.131 105.936 103.245 103.255 105.934 106.131 106.138 106.138 106.138 83.3707 106.138 106.138 106.138 106.138 106.135 106.137 106.124 106.027 104.198 105.798 92.4418 102.129 
        </DataArray>
        <DataArray type="Float32" Name="F1_Temperature_SG_co2gas_mod.xml" format="ascii">
466.463 466.427 467.035 466.637 384.309 384.241 473.459 473.737 389.881 390.129 357.652 357.652 367.776 367.245 466.384 466.391 449.214 447.775 485.375 470.863 470.912 483.398 466.385 466.385 435.247 435.444 466.385 466.385 466.385 466.385 466.385 466.385 470.467 472.221 466.385 466.385 466.385 466.385 466.385 461.769 461.769 466.385 466.385 466.384 466.332 465.621 465.622 466.332 466.384 466.385 466.385 466.385 469.457 466.385 466.385 466.385 466.385 466.385 466.385 466.382 466.356 465.872 466.296 462.66 465.391 
        </DataArray>
        <DataArray type="Float32" Name="F1_Mass fraction_SG_co2gas_mod.xml" format="ascii">
1 1 1 1 1 1 1 1 1 1 1 1 1 1 1 1 1 1 1 1 1 1 1 1 1 1 1 1 1 1 1 1 1 1 1 1 1 1 1 1 1 1 1 1 1 1 1 1 1 1 1 1 1 1 1 1 1 1 1 1 1 1 1 1 1 
        </DataArray>
        <DataArray type="Float32" Name="Density_Mixture" format="ascii">
106.429 106.294 108.466 107.015 398.647 396.715 127.555 128.365 399.834 407.305 378.44 378.423 485.241 476.862 106.134 106.16 289.118 315.329 189.246 212.277 213.369 185.926 106.137 106.137 284.222 284.337 106.138 106.138 106.138 106.138 106.137 106.138 115.729 120.281 106.138 106.138 106.138 106.138 106.138 89.0059 89.0078 106.138 106.138 106.131 105.936 103.245 103.255 105.934 106.131 106.138 106.138 106.138 83.3707 106.138 106.138 106.138 106.138 106.135 106.137 106.124 106.027 104.198 105.798 92.4418 102.129 
        </DataArray>
        <DataArray type="Float32" Name="Pressure_Mixture" format="ascii">
6.29268e+06 6.283e+06 6.43905e+06 6.33494e+06 2.12673e+07 2.1156e+07 7.84669e+06 7.90731e+06 2.16554e+07 2.20912e+07 1.86856e+07 1.86847e+07 2.49194e+07 2.44371e+07 6.27158e+06 6.27343e+06 1.78941e+07 1.9531e+07 1.23963e+07 1.35673e+07 1.36432e+07 1.21101e+07 6.27184e+06 6.27183e+06 1.7002e+07 1.70173e+07 6.27186e+06 6.27186e+06 6.27186e+06 6.27186e+06 6.27183e+06 6.27186e+06 6.98701e+06 7.32719e+06 6.27186e+06 6.27186e+06 6.27186e+06 6.27186e+06 6.27186e+06 5.05708e+06 5.05722e+06 6.27186e+06 6.27185e+06 6.27139e+06 6.25742e+06 6.06533e+06 6.06603e+06 6.25732e+06 6.27138e+06 6.27185e+06 6.27186e+06 6.27186e+06 4.7735e+06 6.27186e+06 6.27186e+06 6.27186e+06 6.27185e+06 6.27165e+06 6.27184e+06 6.27089e+06 6.26396e+06 6.13331e+06 6.24759e+06 5.29841e+06 5.98686e+06 
        </DataArray>
        <DataArray type="Float32" Name="Velocity_Mixture" NumberOfComponents="3" format="ascii">
0.761821 0.00245067 0 0.295584 0.0593954 0 4.75104 0.165586 0 2.28508 -3.13895 0 312.07 4.6754 0 313.514 -4.94669 0 54.6096 -5.96604 0 57.1414 5.51324 0 304.472 43.7066 0 302.446 -41.4579 0 341.905 0.134408 0 341.905 -0.134605 0 300.768 -43.6919 0 301.487 47.3618 0 -0.00813065 -0.0133704 0 0.0456888 -0.0313777 0 247.379 -41.795 0 244.739 71.0769 0 162.789 -22.4284 0 191.627 -7.52041 0 190.219 7.27425 0 137.46 39.1163 0 -0.00230645 -0.00169551 0 -0.000634562 -2.57387e-05 0 252.24 -21.7065 0 253.477 24.5749 0 0 0 0 0 0 0 -3.53192e-05 -2.87715e-06 0 8.21523e-05 0.000140429 0 -0.000672231 0.000535587 0 0 0 0 17.0229 3.59459 0 36.9103 1.52667 0 0 0 0 0 0 0 0 0 0 0 0 0 0 0 0 14.86 -1.07047 0 14.8606 1.07357 0 0 0 0 2.29554e-05 -6.20661e-05 0 0.00298015 -0.00277207 0 0.100933 -0.0587689 0 1.66191 -0.490486 0 1.72783 0.464627 0 0.107872 0.0566601 0 0.00328205 0.00272011 0 3.14475e-05 6.15562e-05 0 0 0 0 0 0 0 55.6571 0.00343519 0 0 0 0 0 0 0 0 0 0 4.13373e-06 0 0 0.00216748 0.000321156 0 0.00112705 -3.54661e-05 0 0.0588683 -0.00180523 0 0.0943466 0.0105738 0 2.09558 0.152453 0 1.53705 -0.0392104 0 22.9992 -0.00601943 0 17.8818 -0.334381 0 
        </DataArray>
        <DataArray type="Float32" Name="gradRho" format="ascii">
0.630725 0.233931 5.18162 5.24234 33.6823 34.6428 36.6177 36.3848 47.5593 60.5229 14.036 12.7024 18.4 18.1853 0.0385876 0.0849007 58.9958 54.5671 54.4051 52.7499 52.7652 62.8608 0.00754563 0.0012572 61.0513 62.0621 2.74591e-07 1.07912e-05 0.000122902 0.000148642 0.000189588 8.59985e-06 25.6087 25.5739 2.12748e-09 2.12748e-09 0 2.58724e-09 2.02881e-09 0.864982 0.865624 4.0736e-07 3.04868e-05 0.00115068 0.0203492 0.15484 0.156298 0.0199457 0.00109529 2.71489e-05 3.41288e-07 6.86837e-10 0.812587 8.04071e-08 1.35632e-07 1.26694e-05 2.01046e-05 0.00129134 0.000946595 0.0345892 0.0427951 0.651146 0.573126 3.7208 3.49832 
        </DataArray>
      </CellData>
    </Piece>
  </UnstructuredGrid>
</VTKFile>
