<?xml version="1.0"?>
<VTKFile type="UnstructuredGrid" version="0.1" byte_order="LittleEndian">
  <UnstructuredGrid>
    <Piece NumberOfPoints="50" NumberOfCells="65">
      <Points>
        <DataArray type="Float32" NumberOfComponents="3" format="ascii">
          0 5 0 0 -5 0 15 0.2 0 15 -0.2 0 35 0.2 0 35 -0.2 0 2.14286 4.31429 0 4.28571 3.62857 0 6.42857 2.94286 0 8.57143 2.25714 0 10.7143 1.57143 0 12.8571 0.885714 0 17.8571 0.2 0 20.7143 0.2 0 23.5714 0.2 0 26.4286 0.2 0 29.2857 0.2 0 32.1429 0.2 0 32.1429 -0.2 0 29.2857 -0.2 0 26.4286 -0.2 0 23.5714 -0.2 0 20.7143 -0.2 0 17.8571 -0.2 0 12.8571 -0.885714 0 10.7143 -1.57143 0 8.57143 -2.25714 0 6.42857 -2.94286 0 4.28571 -3.62857 0 2.14286 -4.31429 0 0 -2.5 0 0 -6.16307e-12 0 0 2.5 0 3.95974 -5.7158e-13 0 13.9286 -3.66374e-15 0 6.61813 2.81487e-12 0 2.86365 2.0434 0 2.86365 -2.0434 0 9.43036 1.987e-12 0 11.3926 2.79508e-14 0 4.83116 1.72297 0 4.83116 -1.72297 0 1.90629 -3.21031e-12 0 33.5714 0 0 16.4286 -1.80625e-18 0 25 6.93889e-18 0 19.2857 -6.93889e-18 0 30.7143 0 0 22.1429 0 0 27.8571 0 0 
        </DataArray>
      </Points>
      <Cells>
        <DataArray type="Int32" Name="connectivity" format="ascii">
          8 9 35 26 27 35 8 35 40 27 41 35 30 42 37 32 36 42 33 40 35 33 35 41 29 30 37 6 36 32 30 31 42 31 32 42 0 6 32 30 29 1 26 35 38 9 38 35 6 7 36 28 29 37 7 40 36 33 41 37 33 36 40 28 37 41 9 10 38 25 26 38 33 42 36 33 37 42 11 34 24 24 25 39 10 11 39 25 38 39 10 39 38 11 24 39 27 28 41 7 8 40 2 34 11 3 24 34 2 3 34 2 44 12 3 23 44 4 17 43 5 43 18 12 46 13 13 48 14 14 45 15 15 49 16 16 47 17 18 47 19 19 49 20 20 45 21 21 48 22 22 46 23 2 3 44 4 43 5 12 44 23 12 23 46 13 46 22 13 22 48 14 21 45 14 48 21 15 45 20 15 20 49 16 19 47 16 49 19 17 18 43 17 47 18 
        </DataArray>
        <DataArray type="Int32" Name="offsets" format="ascii">
          3 6 9 12 15 18 21 24 27 30 33 36 39 42 45 48 51 54 57 60 63 66 69 72 75 78 81 84 87 90 93 96 99 102 105 108 111 114 117 120 123 126 129 132 135 138 141 144 147 150 153 156 159 162 165 168 171 174 177 180 183 186 189 192 195 
        </DataArray>
        <DataArray type="UInt8" Name="types" format="ascii">
          5 5 5 5 5 5 5 5 5 5 5 5 5 5 5 5 5 5 5 5 5 5 5 5 5 5 5 5 5 5 5 5 5 5 5 5 5 5 5 5 5 5 5 5 5 5 5 5 5 5 5 5 5 5 5 5 5 5 5 5 5 5 5 5 5 
        </DataArray>
      </Cells>
      <CellData>
        <DataArray type="Float32" Name="F0_Alpha_SG_co2liq_mod.xml" format="ascii">
1.72529e-10 1.72568e-10 1.71858e-10 1.72143e-10 1.65246e-10 1.65185e-10 1.69307e-10 1.69129e-10 1.64235e-10 1.64065e-10 1.67747e-10 1.67747e-10 1.62692e-10 1.62991e-10 1.72682e-10 1.72663e-10 1.63687e-10 1.63197e-10 1.64787e-10 1.65462e-10 1.65652e-10 1.6447e-10 1.72682e-10 1.72682e-10 1.65328e-10 1.65366e-10 1.72682e-10 1.72682e-10 1.72682e-10 1.72682e-10 1.72683e-10 1.72682e-10 1.69274e-10 1.6933e-10 1.72682e-10 1.72682e-10 1.72682e-10 1.72682e-10 1.72682e-10 1.73276e-10 1.73276e-10 1.72682e-10 1.72682e-10 1.72683e-10 1.72702e-10 1.72849e-10 1.72848e-10 1.72702e-10 1.72683e-10 1.72682e-10 1.72682e-10 1.72682e-10 1.73318e-10 1.72682e-10 1.72682e-10 1.72682e-10 1.72682e-10 1.72683e-10 1.72682e-10 1.72684e-10 1.72695e-10 1.72804e-10 1.72711e-10 1.73192e-10 1.72894e-10 
        </DataArray>
        <DataArray type="Float32" Name="F0_Density_SG_co2liq_mod.xml" format="ascii">
5906.74 5904.31 5946.66 5929.4 6477.52 6481.34 6094.29 6104.37 6543.85 6553.46 6345.66 6345.64 6677.6 6657.64 5897.12 5898.31 6500.43 6531.81 6367.92 6356.54 6345.46 6385.81 5897.12 5897.12 6413.4 6410.94 5897.13 5897.13 5897.13 5897.13 5897.09 5897.13 6090.17 6085.71 5897.13 5897.13 5897.13 5897.13 5897.13 5856.75 5856.75 5897.13 5897.13 5897.05 5895.85 5886.35 5886.38 5895.85 5897.05 5897.13 5897.13 5897.13 5849.85 5897.13 5897.13 5897.13 5897.13 5897.09 5897.12 5897 5896.32 5889.25 5895.25 5862.95 5883.32 
        </DataArray>
        <DataArray type="Float32" Name="F0_Temperature_SG_co2liq_mod.xml" format="ascii">
41.8098 41.8026 41.9117 41.8709 42.4123 42.4138 42.1485 42.16 42.4364 42.4396 42.3507 42.3507 42.4745 42.4696 41.7806 41.7844 42.4211 42.4323 42.3626 42.3566 42.3506 42.3717 41.7806 41.7806 42.3849 42.3838 41.7807 41.7807 41.7807 41.7807 41.7806 41.7807 42.1437 42.1383 41.7807 41.7807 41.7807 41.7807 41.7807 41.6265 41.6265 41.7807 41.7807 41.7804 41.7766 41.7452 41.7453 41.7766 41.7804 41.7807 41.7807 41.7807 41.5925 41.7807 41.7807 41.7807 41.7807 41.7805 41.7807 41.7803 41.7781 41.7551 41.7747 41.6546 41.7346 
        </DataArray>
        <DataArray type="Float32" Name="F0_Mass fraction_SG_co2liq_mod.xml" format="ascii">
9.21371e-09 9.30562e-09 7.99117e-09 8.48541e-09 2.51296e-09 2.50421e-09 5.49275e-09 5.38488e-09 2.36189e-09 2.34603e-09 2.76992e-09 2.77e-09 2.04583e-09 2.07742e-09 9.59483e-09 9.5451e-09 2.71986e-09 2.6369e-09 3.50414e-09 3.36175e-09 3.40508e-09 3.43599e-09 9.59487e-09 9.59476e-09 2.90652e-09 2.91445e-09 9.5944e-09 9.5944e-09 9.59456e-09 9.59448e-09 9.59595e-09 9.59441e-09 5.64579e-09 5.72225e-09 9.5944e-09 9.5944e-09 9.5944e-09 9.5944e-09 9.5944e-09 1.18542e-08 1.1854e-08 9.5944e-09 9.59451e-09 9.59762e-09 9.64862e-09 1.00786e-08 1.00771e-08 9.64873e-09 9.59765e-09 9.59451e-09 9.5944e-09 9.5944e-09 1.26571e-08 9.5944e-09 9.5944e-09 9.59441e-09 9.59445e-09 9.59613e-09 9.59462e-09 9.59997e-09 9.62849e-09 9.94184e-09 9.67431e-09 1.14089e-08 1.02298e-08 
        </DataArray>
        <DataArray type="Float32" Name="F1_Alpha_SG_co2gas_mod.xml" format="ascii">
1 1 1 1 1 1 1 1 1 1 1 1 1 1 1 1 1 1 1 1 1 1 1 1 1 1 1 1 1 1 1 1 1 1 1 1 1 1 1 1 1 1 1 1 1 1 1 1 1 1 1 1 1 1 1 1 1 1 1 1 1 1 1 1 1 
        </DataArray>
        <DataArray type="Float32" Name="F1_Density_SG_co2gas_mod.xml" format="ascii">
110.605 109.492 127.888 120.29 425.946 427.529 187.849 191.727 455.031 458.303 384.294 384.282 531.03 522.348 106.133 106.696 391.209 404.252 299.459 312.863 308.697 305.668 106.132 106.134 364.805 363.758 106.138 106.138 106.136 106.137 106.12 106.138 182.598 180.085 106.138 106.138 106.138 106.138 106.138 85.6096 85.6113 106.138 106.137 106.101 105.531 100.952 100.967 105.529 106.101 106.137 106.138 106.138 80.1036 106.138 106.138 106.138 106.137 106.118 106.135 106.075 105.755 102.364 105.245 89.0022 99.4343 
        </DataArray>
        <DataArray type="Float32" Name="F1_Temperature_SG_co2gas_mod.xml" format="ascii">
467.676 467.324 473.506 472.279 374.446 374.617 480.019 480.339 375.848 376.795 354.6 354.599 365.398 364.931 466.384 466.534 417.898 417.9 468.255 441.744 441.322 469.104 466.384 466.384 406.4 406.378 466.385 466.385 466.385 466.385 466.381 466.385 489.508 491.583 466.385 466.385 466.385 466.385 466.385 460.808 460.808 466.385 466.385 466.376 466.225 465.009 465.01 466.225 466.376 466.385 466.385 466.385 468.92 466.385 466.385 466.385 466.385 466.38 466.385 466.369 466.284 465.381 466.153 461.679 464.725 
        </DataArray>
        <DataArray type="Float32" Name="F1_Mass fraction_SG_co2gas_mod.xml" format="ascii">
1 1 1 1 1 1 1 1 1 1 1 1 1 1 1 1 1 1 1 1 1 1 1 1 1 1 1 1 1 1 1 1 1 1 1 1 1 1 1 1 1 1 1 1 1 1 1 1 1 1 1 1 1 1 1 1 1 1 1 1 1 1 1 1 1 
        </DataArray>
        <DataArray type="Float32" Name="Density_Mixture" format="ascii">
110.605 109.492 127.888 120.29 425.946 427.529 187.849 191.727 455.031 458.303 384.294 384.282 531.03 522.348 106.133 106.696 391.209 404.252 299.459 312.863 308.697 305.668 106.132 106.134 364.805 363.758 106.138 106.138 106.136 106.137 106.12 106.138 182.598 180.085 106.138 106.138 106.138 106.138 106.138 85.6096 85.6113 106.138 106.137 106.101 105.531 100.952 100.967 105.529 106.101 106.137 106.138 106.138 80.1036 106.138 106.138 106.138 106.137 106.118 106.135 106.075 105.755 102.364 105.245 89.0022 99.4343 
        </DataArray>
        <DataArray type="Float32" Name="Pressure_Mixture" format="ascii">
6.59377e+06 6.51296e+06 7.87039e+06 7.32878e+06 2.21768e+07 2.22731e+07 1.21527e+07 1.24308e+07 2.38439e+07 2.40845e+07 1.88187e+07 1.88181e+07 2.71718e+07 2.66778e+07 6.27151e+06 6.31178e+06 2.2754e+07 2.35422e+07 1.93903e+07 1.90985e+07 1.88135e+07 1.98482e+07 6.27148e+06 6.27157e+06 2.05519e+07 2.04893e+07 6.27186e+06 6.27186e+06 6.27173e+06 6.2718e+06 6.27061e+06 6.27185e+06 1.20388e+07 1.1915e+07 6.27186e+06 6.27186e+06 6.27186e+06 6.27186e+06 6.27186e+06 4.8184e+06 4.81853e+06 6.27186e+06 6.27177e+06 6.26927e+06 6.22847e+06 5.90203e+06 5.90308e+06 6.22839e+06 6.26924e+06 6.27177e+06 6.27186e+06 6.27186e+06 4.54549e+06 6.27186e+06 6.27186e+06 6.27185e+06 6.27182e+06 6.27046e+06 6.27168e+06 6.26738e+06 6.24452e+06 6.00252e+06 6.20815e+06 5.05568e+06 5.7959e+06 
        </DataArray>
        <DataArray type="Float32" Name="Velocity_Mixture" NumberOfComponents="3" format="ascii">
12.1697 -0.363619 0 6.45995 1.57829 0 48.057 -4.0987 0 33.8143 -10.0282 0 320.961 11.8821 0 321.662 -14.3585 0 167.869 -7.3315 0 173.425 8.0807 0 309.466 44.2665 0 309.037 -43.9149 0 343.325 0.100589 0 343.327 -0.0985088 0 291.735 -43.1009 0 293.245 45.7339 0 -0.042278 -0.298934 0 1.25466 -0.694751 0 283.841 -59.088 0 285.892 76.0099 0 258.381 -46.2964 0 262.623 15.1373 0 265.192 -8.27264 0 249.195 71.6995 0 -0.100118 -0.0832382 0 -0.00225149 -0.00492354 0 288.934 -17.5891 0 289.102 19.0966 0 0 0 0 -1.41545e-07 2.45384e-05 0 -0.00429482 -0.00125195 0 0.000786305 0.00640288 0 -0.0352526 0.0286291 0 -0.000113372 0.000181639 0 126.24 43.6802 0 153.71 -18.2305 0 0 0 0 0 0 0 0 0 0 0 0 0 0 0 0 21.3499 -0.866132 0 21.3523 0.87108 0 0 -1.01883e-05 0 0.000534887 -0.000487286 0 0.0180188 -0.0110731 0 0.33474 -0.125854 0 3.43538 -0.607258 0 3.47585 0.589769 0 0.350613 0.120775 0 0.0193057 0.010723 0 0.000592086 0.000480738 0 0 1.18863e-05 0 0 0 0 62.703 0.00583349 0 0 0 0 0 0 0 0.000208603 0 0 0.000401176 5.19334e-05 0 0.0168176 0.00184703 0 0.0105609 -0.000311006 0 0.280576 -0.00732214 0 0.390818 0.0295516 0 5.0579 0.161215 0 4.01944 -0.0853178 0 35.4944 -0.00485952 0 27.903 -0.187719 0 
        </DataArray>
        <DataArray type="Float32" Name="gradRho" format="ascii">
5.61565 3.65923 21.4198 22.1401 21.2973 21.9213 58.6823 61.2227 38.1927 44.7873 28.929 30.0345 17.17 15.8929 0.832254 1.33596 40.9488 37.3304 74.0009 57.3207 58.8817 77.5111 0.193501 0.00105153 39.4978 37.5899 3.41329e-05 0.000315509 0.00609294 0.00748721 0.00581763 0.000784765 51.5254 48.7223 7.78427e-07 8.65983e-07 1.13687e-07 9.22748e-08 7.6945e-08 0.841147 0.841708 6.93921e-06 0.000201557 0.00397933 0.0399366 0.212937 0.214084 0.0397001 0.00387334 0.000192433 5.6918e-06 3.1818e-08 0.79394 2.64917e-06 4.13333e-06 0.000177227 0.000238336 0.00760481 0.00609367 0.114465 0.133589 1.14344 1.03575 3.97725 3.79785 
        </DataArray>
      </CellData>
    </Piece>
  </UnstructuredGrid>
</VTKFile>
