<?xml version="1.0"?>
<VTKFile type="UnstructuredGrid" version="0.1" byte_order="LittleEndian">
  <UnstructuredGrid>
    <Piece NumberOfPoints="50" NumberOfCells="65">
      <Points>
        <DataArray type="Float32" NumberOfComponents="3" format="ascii">
          0 5 0 0 -5 0 15 0.2 0 15 -0.2 0 35 0.2 0 35 -0.2 0 2.14286 4.31429 0 4.28571 3.62857 0 6.42857 2.94286 0 8.57143 2.25714 0 10.7143 1.57143 0 12.8571 0.885714 0 17.8571 0.2 0 20.7143 0.2 0 23.5714 0.2 0 26.4286 0.2 0 29.2857 0.2 0 32.1429 0.2 0 32.1429 -0.2 0 29.2857 -0.2 0 26.4286 -0.2 0 23.5714 -0.2 0 20.7143 -0.2 0 17.8571 -0.2 0 12.8571 -0.885714 0 10.7143 -1.57143 0 8.57143 -2.25714 0 6.42857 -2.94286 0 4.28571 -3.62857 0 2.14286 -4.31429 0 0 -2.5 0 0 -6.16307e-12 0 0 2.5 0 3.95974 -5.7158e-13 0 13.9286 -3.66374e-15 0 6.61813 2.81487e-12 0 2.86365 2.0434 0 2.86365 -2.0434 0 9.43036 1.987e-12 0 11.3926 2.79508e-14 0 4.83116 1.72297 0 4.83116 -1.72297 0 1.90629 -3.21031e-12 0 33.5714 0 0 16.4286 -1.80625e-18 0 25 6.93889e-18 0 19.2857 -6.93889e-18 0 30.7143 0 0 22.1429 0 0 27.8571 0 0 
        </DataArray>
      </Points>
      <Cells>
        <DataArray type="Int32" Name="connectivity" format="ascii">
          8 9 35 26 27 35 8 35 40 27 41 35 30 42 37 32 36 42 33 40 35 33 35 41 29 30 37 6 36 32 30 31 42 31 32 42 0 6 32 30 29 1 26 35 38 9 38 35 6 7 36 28 29 37 7 40 36 33 41 37 33 36 40 28 37 41 9 10 38 25 26 38 33 42 36 33 37 42 11 34 24 24 25 39 10 11 39 25 38 39 10 39 38 11 24 39 27 28 41 7 8 40 2 34 11 3 24 34 2 3 34 2 44 12 3 23 44 4 17 43 5 43 18 12 46 13 13 48 14 14 45 15 15 49 16 16 47 17 18 47 19 19 49 20 20 45 21 21 48 22 22 46 23 2 3 44 4 43 5 12 44 23 12 23 46 13 46 22 13 22 48 14 21 45 14 48 21 15 45 20 15 20 49 16 19 47 16 49 19 17 18 43 17 47 18 
        </DataArray>
        <DataArray type="Int32" Name="offsets" format="ascii">
          3 6 9 12 15 18 21 24 27 30 33 36 39 42 45 48 51 54 57 60 63 66 69 72 75 78 81 84 87 90 93 96 99 102 105 108 111 114 117 120 123 126 129 132 135 138 141 144 147 150 153 156 159 162 165 168 171 174 177 180 183 186 189 192 195 
        </DataArray>
        <DataArray type="UInt8" Name="types" format="ascii">
          5 5 5 5 5 5 5 5 5 5 5 5 5 5 5 5 5 5 5 5 5 5 5 5 5 5 5 5 5 5 5 5 5 5 5 5 5 5 5 5 5 5 5 5 5 5 5 5 5 5 5 5 5 5 5 5 5 5 5 5 5 5 5 5 5 
        </DataArray>
      </Cells>
      <CellData>
        <DataArray type="Float32" Name="F0_Alpha_SG_co2liq_mod.xml" format="ascii">
1.72548e-10 1.72585e-10 1.71948e-10 1.72215e-10 1.65254e-10 1.65198e-10 1.69497e-10 1.69323e-10 1.64274e-10 1.641e-10 1.67745e-10 1.67746e-10 1.62759e-10 1.63058e-10 1.72682e-10 1.72666e-10 1.63779e-10 1.6325e-10 1.64985e-10 1.65607e-10 1.65777e-10 1.64699e-10 1.72682e-10 1.72682e-10 1.65393e-10 1.65431e-10 1.72682e-10 1.72682e-10 1.72682e-10 1.72682e-10 1.72682e-10 1.72682e-10 1.69572e-10 1.6959e-10 1.72682e-10 1.72682e-10 1.72682e-10 1.72682e-10 1.72682e-10 1.73272e-10 1.73272e-10 1.72682e-10 1.72682e-10 1.72683e-10 1.72701e-10 1.72844e-10 1.72844e-10 1.72701e-10 1.72683e-10 1.72682e-10 1.72682e-10 1.72682e-10 1.73314e-10 1.72682e-10 1.72682e-10 1.72682e-10 1.72682e-10 1.72683e-10 1.72682e-10 1.72684e-10 1.72694e-10 1.72801e-10 1.7271e-10 1.73187e-10 1.72889e-10 
        </DataArray>
        <DataArray type="Float32" Name="F0_Density_SG_co2liq_mod.xml" format="ascii">
5905.52 5903.27 5941.44 5925.27 6475.97 6479.45 6083.15 6093.04 6539.82 6549.72 6345.5 6345.47 6672.61 6652.67 5897.11 5898.14 6492.04 6525.63 6354.14 6345.51 6335.58 6370.48 5897.12 5897.12 6407.16 6404.74 5897.13 5897.13 5897.13 5897.13 5897.1 5897.13 6073.9 6071.55 5897.13 5897.13 5897.13 5897.13 5897.13 5857.07 5857.07 5897.13 5897.13 5897.06 5895.92 5886.65 5886.68 5895.92 5897.06 5897.13 5897.13 5897.13 5850.14 5897.13 5897.13 5897.13 5897.13 5897.09 5897.13 5897.01 5896.37 5889.5 5895.34 5863.29 5883.66 
        </DataArray>
        <DataArray type="Float32" Name="F0_Temperature_SG_co2liq_mod.xml" format="ascii">
41.8062 41.7995 41.8998 41.8604 42.4117 42.4131 42.1353 42.147 42.4351 42.4384 42.3506 42.3506 42.4733 42.4683 41.7806 41.7838 42.418 42.4302 42.3553 42.3506 42.3451 42.364 41.7806 41.7806 42.382 42.3809 41.7807 41.7807 41.7807 41.7807 41.7806 41.7807 42.1238 42.1209 41.7807 41.7807 41.7807 41.7807 41.7807 41.628 41.628 41.7807 41.7807 41.7805 41.7768 41.7462 41.7463 41.7768 41.7804 41.7807 41.7807 41.7807 41.594 41.7807 41.7807 41.7807 41.7807 41.7806 41.7807 41.7803 41.7783 41.7559 41.775 41.6561 41.7358 
        </DataArray>
        <DataArray type="Float32" Name="F0_Mass fraction_SG_co2liq_mod.xml" format="ascii">
9.25968e-09 9.34575e-09 8.12506e-09 8.60652e-09 2.51992e-09 2.51192e-09 5.62362e-09 5.51232e-09 2.37458e-09 2.35765e-09 2.77137e-09 2.77145e-09 2.05467e-09 2.08651e-09 9.59524e-09 9.55224e-09 2.75283e-09 2.66279e-09 3.57821e-09 3.4217e-09 3.46183e-09 3.51154e-09 9.59482e-09 9.59478e-09 2.93572e-09 2.9437e-09 9.5944e-09 9.5944e-09 9.59453e-09 9.59445e-09 9.59569e-09 9.59441e-09 5.82881e-09 5.88409e-09 9.5944e-09 9.5944e-09 9.5944e-09 9.5944e-09 9.5944e-09 1.18303e-08 1.183e-08 9.5944e-09 9.5945e-09 9.59736e-09 9.64576e-09 1.00644e-08 1.00628e-08 9.64586e-09 9.59739e-09 9.5945e-09 9.5944e-09 9.5944e-09 1.26314e-08 9.5944e-09 9.5944e-09 9.5944e-09 9.59444e-09 9.59598e-09 9.59459e-09 9.59956e-09 9.62649e-09 9.93053e-09 9.67055e-09 1.13859e-08 1.02128e-08 
        </DataArray>
        <DataArray type="Float32" Name="F1_Alpha_SG_co2gas_mod.xml" format="ascii">
1 1 1 1 1 1 1 1 1 1 1 1 1 1 1 1 1 1 1 1 1 1 1 1 1 1 1 1 1 1 1 1 1 1 1 1 1 1 1 1 1 1 1 1 1 1 1 1 1 1 1 1 1 1 1 1 1 1 1 1 1 1 1 1 1 
        </DataArray>
        <DataArray type="Float32" Name="F1_Density_SG_co2gas_mod.xml" format="ascii">
110.046 109.014 125.737 118.563 424.689 426.126 183.347 187.161 452.426 455.883 384.079 384.067 528.567 519.898 106.128 106.615 386.242 400.073 292.978 307.117 303.393 298.789 106.133 106.134 360.968 359.937 106.138 106.138 106.136 106.137 106.123 106.138 176.702 174.993 106.138 106.138 106.138 106.138 106.138 85.7852 85.787 106.138 106.137 106.104 105.563 101.097 101.113 105.561 106.104 106.137 106.138 106.138 80.2694 106.138 106.138 106.138 106.137 106.12 106.136 106.08 105.778 102.483 105.287 89.1844 99.6024 
        </DataArray>
        <DataArray type="Float32" Name="F1_Temperature_SG_co2gas_mod.xml" format="ascii">
467.504 467.183 472.689 471.456 374.916 375.077 480.163 480.51 376.47 377.376 354.723 354.722 365.485 365.013 466.383 466.512 419.492 419.584 470.269 443.622 443.241 470.828 466.384 466.384 407.673 407.66 466.385 466.385 466.385 466.385 466.381 466.385 488.136 490.311 466.385 466.385 466.385 466.385 466.385 460.857 460.858 466.385 466.385 466.377 466.234 465.048 465.049 466.233 466.376 466.385 466.385 466.385 468.959 466.385 466.385 466.385 466.385 466.381 466.385 466.37 466.29 465.413 466.164 461.732 464.767 
        </DataArray>
        <DataArray type="Float32" Name="F1_Mass fraction_SG_co2gas_mod.xml" format="ascii">
1 1 1 1 1 1 1 1 1 1 1 1 1 1 1 1 1 1 1 1 1 1 1 1 1 1 1 1 1 1 1 1 1 1 1 1 1 1 1 1 1 1 1 1 1 1 1 1 1 1 1 1 1 1 1 1 1 1 1 1 1 1 1 1 1 
        </DataArray>
        <DataArray type="Float32" Name="Density_Mixture" format="ascii">
110.046 109.014 125.737 118.563 424.689 426.126 183.347 187.161 452.426 455.883 384.079 384.067 528.567 519.898 106.128 106.615 386.242 400.073 292.978 307.117 303.393 298.789 106.133 106.134 360.968 359.937 106.138 106.138 106.136 106.137 106.123 106.138 176.702 174.993 106.138 106.138 106.138 106.138 106.138 85.7852 85.787 106.138 106.137 106.104 105.563 101.097 101.113 105.561 106.104 106.137 106.138 106.138 80.2694 106.138 106.138 106.138 106.137 106.12 106.136 106.08 105.778 102.483 105.287 89.1844 99.6024 
        </DataArray>
        <DataArray type="Float32" Name="Pressure_Mixture" format="ascii">
6.55321e+06 6.47837e+06 7.70822e+06 7.19677e+06 2.21376e+07 2.22254e+07 1.18441e+07 1.21183e+07 2.37429e+07 2.39909e+07 1.88145e+07 1.88139e+07 2.70483e+07 2.65547e+07 6.27118e+06 6.30598e+06 2.25428e+07 2.33872e+07 1.90368e+07 1.88149e+07 1.85593e+07 1.94561e+07 6.27152e+06 6.27155e+06 2.03929e+07 2.03314e+07 6.27186e+06 6.27186e+06 6.27175e+06 6.27182e+06 6.27082e+06 6.27185e+06 1.15864e+07 1.15209e+07 6.27186e+06 6.27186e+06 6.27186e+06 6.27186e+06 6.27186e+06 4.83072e+06 4.83086e+06 6.27186e+06 6.27178e+06 6.26947e+06 6.23075e+06 5.91232e+06 5.91345e+06 6.23067e+06 6.26945e+06 6.27178e+06 6.27186e+06 6.27186e+06 4.55719e+06 6.27186e+06 6.27186e+06 6.27185e+06 6.27182e+06 6.27059e+06 6.2717e+06 6.2677e+06 6.24612e+06 6.01097e+06 6.21113e+06 5.06853e+06 5.8078e+06 
        </DataArray>
        <DataArray type="Float32" Name="Velocity_Mixture" NumberOfComponents="3" format="ascii">
10.6211 -0.298545 0 5.51845 1.35066 0 43.2534 -3.64353 0 29.7778 -9.89799 0 320.69 11.426 0 321.442 -13.777 0 161.293 -7.25761 0 166.914 7.84584 0 309.43 44.1755 0 308.932 -43.7596 0 343.283 0.102301 0 343.285 -0.10029 0 292.302 -43.1725 0 293.804 45.7873 0 -0.0459963 -0.260121 0 1.06726 -0.599243 0 282.749 -58.4265 0 284.668 75.9212 0 255.017 -45.0569 0 260.1 13.5171 0 262.451 -7.17336 0 245.262 70.6252 0 -0.0838116 -0.0692782 0 -0.00320689 -0.00429547 0 287.659 -17.9145 0 287.878 19.407 0 0 0 0 6.26952e-06 1.87382e-05 0 -0.00349146 -0.00102792 0 0.000889817 0.00550847 0 -0.0292738 0.0236848 0 -8.58002e-05 0.000140406 0 117.582 41.034 0 145.966 -16.2655 0 0 0 0 0 0 0 0 0 0 0 0 0 0 0 0 20.9459 -0.877162 0 20.9482 0.882157 0 0 -7.8208e-06 0 0.000470987 -0.000440425 0 0.0164872 -0.0103567 0 0.315432 -0.121427 0 3.31088 -0.602257 0 3.35393 0.582578 0 0.33069 0.116522 0 0.0176867 0.0100342 0 0.000522809 0.000435043 0 0 9.73085e-06 0 0 0 0 62.3425 0.00585452 0 0 0 0 0 0 0 0.00017688 0 0 0.000347433 4.44332e-05 0 0.0152003 0.00169976 0 0.00946482 -0.000280101 0 0.259896 -0.00684466 0 0.364273 0.0281737 0 4.84274 0.16424 0 3.83597 -0.0821862 0 34.761 -0.00520576 0 27.3225 -0.199645 0 
        </DataArray>
        <DataArray type="Float32" Name="gradRho" format="ascii">
5.07902 3.22223 20.1531 20.7668 21.4431 22.109 57.849 60.1447 38.427 45.3807 28.2051 29.2091 17.16 15.9295 0.712929 1.16753 42.0792 38.4095 73.7681 57.5262 59.0838 77.7711 0.165299 0.00260934 40.7959 39.0827 2.68737e-05 0.000215355 0.0050749 0.0061427 0.00498971 0.000640733 50.5495 47.8065 5.85856e-07 6.50122e-07 8.41818e-08 7.82967e-08 6.53881e-08 0.84259 0.843191 6.29106e-06 0.000183607 0.00374698 0.0386219 0.209492 0.210771 0.0383773 0.00364337 0.000175296 5.18608e-06 2.66237e-08 0.79537 2.28061e-06 3.51739e-06 0.000156096 0.000211057 0.00697277 0.00556604 0.108062 0.126432 1.11399 1.00791 3.97292 3.79069 
        </DataArray>
      </CellData>
    </Piece>
  </UnstructuredGrid>
</VTKFile>
