<?xml version="1.0"?>
<VTKFile type="UnstructuredGrid" version="0.1" byte_order="LittleEndian">
  <UnstructuredGrid>
    <Piece NumberOfPoints="50" NumberOfCells="65">
      <Points>
        <DataArray type="Float32" NumberOfComponents="3" format="ascii">
          0 5 0 0 -5 0 15 0.2 0 15 -0.2 0 35 0.2 0 35 -0.2 0 2.14286 4.31429 0 4.28571 3.62857 0 6.42857 2.94286 0 8.57143 2.25714 0 10.7143 1.57143 0 12.8571 0.885714 0 17.8571 0.2 0 20.7143 0.2 0 23.5714 0.2 0 26.4286 0.2 0 29.2857 0.2 0 32.1429 0.2 0 32.1429 -0.2 0 29.2857 -0.2 0 26.4286 -0.2 0 23.5714 -0.2 0 20.7143 -0.2 0 17.8571 -0.2 0 12.8571 -0.885714 0 10.7143 -1.57143 0 8.57143 -2.25714 0 6.42857 -2.94286 0 4.28571 -3.62857 0 2.14286 -4.31429 0 0 -2.5 0 0 -6.16307e-12 0 0 2.5 0 3.95974 -5.7158e-13 0 13.9286 -3.66374e-15 0 6.61813 2.81487e-12 0 2.86365 2.0434 0 2.86365 -2.0434 0 9.43036 1.987e-12 0 11.3926 2.79508e-14 0 4.83116 1.72297 0 4.83116 -1.72297 0 1.90629 -3.21031e-12 0 33.5714 0 0 16.4286 -1.80625e-18 0 25 6.93889e-18 0 19.2857 -6.93889e-18 0 30.7143 0 0 22.1429 0 0 27.8571 0 0 
        </DataArray>
      </Points>
      <Cells>
        <DataArray type="Int32" Name="connectivity" format="ascii">
          8 9 35 26 27 35 8 35 40 27 41 35 30 42 37 32 36 42 33 40 35 33 35 41 29 30 37 6 36 32 30 31 42 31 32 42 0 6 32 30 29 1 26 35 38 9 38 35 6 7 36 28 29 37 7 40 36 33 41 37 33 36 40 28 37 41 9 10 38 25 26 38 33 42 36 33 37 42 11 34 24 24 25 39 10 11 39 25 38 39 10 39 38 11 24 39 27 28 41 7 8 40 2 34 11 3 24 34 2 3 34 2 44 12 3 23 44 4 17 43 5 43 18 12 46 13 13 48 14 14 45 15 15 49 16 16 47 17 18 47 19 19 49 20 20 45 21 21 48 22 22 46 23 2 3 44 4 43 5 12 44 23 12 23 46 13 46 22 13 22 48 14 21 45 14 48 21 15 45 20 15 20 49 16 19 47 16 49 19 17 18 43 17 47 18 
        </DataArray>
        <DataArray type="Int32" Name="offsets" format="ascii">
          3 6 9 12 15 18 21 24 27 30 33 36 39 42 45 48 51 54 57 60 63 66 69 72 75 78 81 84 87 90 93 96 99 102 105 108 111 114 117 120 123 126 129 132 135 138 141 144 147 150 153 156 159 162 165 168 171 174 177 180 183 186 189 192 195 
        </DataArray>
        <DataArray type="UInt8" Name="types" format="ascii">
          5 5 5 5 5 5 5 5 5 5 5 5 5 5 5 5 5 5 5 5 5 5 5 5 5 5 5 5 5 5 5 5 5 5 5 5 5 5 5 5 5 5 5 5 5 5 5 5 5 5 5 5 5 5 5 5 5 5 5 5 5 5 5 5 5 
        </DataArray>
      </Cells>
      <CellData>
        <DataArray type="Float32" Name="F0_Alpha_SG_co2liq_mod.xml" format="ascii">
1.72682e-10 1.72682e-10 1.72683e-10 1.72682e-10 1.66994e-10 1.67057e-10 1.72674e-10 1.72673e-10 1.67778e-10 1.6761e-10 1.67887e-10 1.67887e-10 1.65944e-10 1.6613e-10 1.72682e-10 1.72682e-10 1.71221e-10 1.70546e-10 1.72436e-10 1.72248e-10 1.72218e-10 1.72684e-10 1.72682e-10 1.72682e-10 1.70919e-10 1.70908e-10 1.72682e-10 1.72682e-10 1.72682e-10 1.72682e-10 1.72682e-10 1.72682e-10 1.72694e-10 1.72681e-10 1.72682e-10 1.72682e-10 1.72682e-10 1.72682e-10 1.72682e-10 1.73021e-10 1.73021e-10 1.72682e-10 1.72682e-10 1.72682e-10 1.72682e-10 1.72706e-10 1.72706e-10 1.72682e-10 1.72682e-10 1.72682e-10 1.72682e-10 1.72682e-10 1.73102e-10 1.72682e-10 1.72682e-10 1.72682e-10 1.72682e-10 1.72682e-10 1.72682e-10 1.72682e-10 1.72682e-10 1.72694e-10 1.72683e-10 1.72926e-10 1.72724e-10 
        </DataArray>
        <DataArray type="Float32" Name="F0_Density_SG_co2liq_mod.xml" format="ascii">
5897.13 5897.13 5897.08 5897.1 6294.41 6290.83 5897.64 5897.7 6235.53 6243.66 6308.42 6308.45 6424.99 6412.91 5897.13 5897.13 5986.03 6025.73 5912.46 5923.83 5925.64 5896.94 5897.13 5897.13 6000.9 6001.6 5897.13 5897.13 5897.13 5897.13 5897.13 5897.13 5896.33 5897.16 5897.13 5897.13 5897.13 5897.13 5897.13 5874.82 5874.82 5897.13 5897.13 5897.13 5897.1 5895.61 5895.6 5897.1 5897.13 5897.13 5897.13 5897.13 5866.39 5897.13 5897.13 5897.13 5897.13 5897.13 5897.13 5897.13 5897.12 5896.36 5897.05 5881.26 5894.45 
        </DataArray>
        <DataArray type="Float32" Name="F0_Temperature_SG_co2liq_mod.xml" format="ascii">
41.7807 41.7807 41.7805 41.7806 42.3205 42.3182 41.7823 41.7825 42.2801 42.2861 42.3292 42.3292 42.3902 42.3847 41.7807 41.7807 41.9912 42.0573 41.8261 41.8567 41.8614 41.7801 41.7807 41.7807 42.0174 42.0186 41.7807 41.7807 41.7807 41.7807 41.7807 41.7807 41.7782 41.7808 41.7807 41.7807 41.7807 41.7807 41.7807 41.7033 41.7033 41.7807 41.7807 41.7807 41.7806 41.7759 41.7758 41.7806 41.7807 41.7807 41.7807 41.7807 41.6694 41.7807 41.7807 41.7807 41.7807 41.7807 41.7807 41.7807 41.7806 41.7782 41.7804 41.7272 41.7721 
        </DataArray>
        <DataArray type="Float32" Name="F0_Mass fraction_SG_co2liq_mod.xml" format="ascii">
9.5945e-09 9.59437e-09 9.59654e-09 9.59559e-09 3.43311e-09 3.44747e-09 9.5729e-09 9.57053e-09 3.8003e-09 3.77225e-09 3.00842e-09 3.00833e-09 2.67311e-09 2.7073e-09 9.5944e-09 9.59441e-09 7.03803e-09 6.33493e-09 9.0049e-09 8.63021e-09 8.57271e-09 9.60397e-09 9.5944e-09 9.5944e-09 6.82942e-09 6.816e-09 9.5944e-09 9.5944e-09 9.5944e-09 9.5944e-09 9.5944e-09 9.5944e-09 9.62804e-09 9.59308e-09 9.5944e-09 9.5944e-09 9.5944e-09 9.5944e-09 9.5944e-09 1.06783e-08 1.06783e-08 9.5944e-09 9.5944e-09 9.59441e-09 9.59572e-09 9.65871e-09 9.65918e-09 9.59577e-09 9.59441e-09 9.5944e-09 9.5944e-09 9.5944e-09 1.13524e-08 9.5944e-09 9.5944e-09 9.5944e-09 9.5944e-09 9.5944e-09 9.5944e-09 9.59443e-09 9.59487e-09 9.62685e-09 9.59763e-09 1.03314e-08 9.70931e-09 
        </DataArray>
        <DataArray type="Float32" Name="F1_Alpha_SG_co2gas_mod.xml" format="ascii">
1 1 1 1 1 1 1 1 1 1 1 1 1 1 1 1 1 1 1 1 1 1 1 1 1 1 1 1 1 1 1 1 1 1 1 1 1 1 1 1 1 1 1 1 1 1 1 1 1 1 1 1 1 1 1 1 1 1 1 1 1 1 1 1 1 
        </DataArray>
        <DataArray type="Float32" Name="F1_Density_SG_co2gas_mod.xml" format="ascii">
106.137 106.138 106.114 106.124 306.174 304.84 106.38 106.407 275.291 277.42 352.047 352.058 398.856 393.52 106.138 106.138 145.628 162.222 113.219 118.232 119.041 106.03 106.138 106.138 150.184 150.487 106.138 106.138 106.138 106.138 106.138 106.138 105.76 106.153 106.138 106.138 106.138 106.138 106.138 95.1901 95.1904 106.138 106.138 106.138 106.123 105.418 105.413 106.122 106.138 106.138 106.138 106.138 89.451 106.138 106.138 106.138 106.138 106.138 106.138 106.137 106.132 105.774 106.101 98.4403 104.859 
        </DataArray>
        <DataArray type="Float32" Name="F1_Temperature_SG_co2gas_mod.xml" format="ascii">
466.385 466.385 466.379 466.382 415.152 414.854 466.45 466.458 423.045 425.127 368.197 368.198 376.817 376.524 466.385 466.385 472.491 473.571 468.382 470.086 470.255 466.441 466.385 466.385 478.356 478.331 466.385 466.385 466.385 466.385 466.385 466.385 466.286 466.389 466.385 466.385 466.385 466.385 466.385 463.487 463.487 466.385 466.385 466.385 466.381 466.196 466.194 466.381 466.385 466.385 466.385 466.385 469.355 466.385 466.385 466.385 466.385 466.385 466.385 466.385 466.384 466.289 466.376 464.325 466.062 
        </DataArray>
        <DataArray type="Float32" Name="F1_Mass fraction_SG_co2gas_mod.xml" format="ascii">
1 1 1 1 1 1 1 1 1 1 1 1 1 1 1 1 1 1 1 1 1 1 1 1 1 1 1 1 1 1 1 1 1 1 1 1 1 1 1 1 1 1 1 1 1 1 1 1 1 1 1 1 1 1 1 1 1 1 1 1 1 1 1 1 1 
        </DataArray>
        <DataArray type="Float32" Name="Density_Mixture" format="ascii">
106.137 106.138 106.114 106.124 306.174 304.84 106.38 106.407 275.291 277.42 352.047 352.058 398.856 393.52 106.138 106.138 145.628 162.222 113.219 118.232 119.041 106.03 106.138 106.138 150.184 150.487 106.138 106.138 106.138 106.138 106.138 106.138 105.76 106.153 106.138 106.138 106.138 106.138 106.138 95.1901 95.1904 106.138 106.138 106.138 106.123 105.418 105.413 106.122 106.138 106.138 106.138 106.138 89.451 106.138 106.138 106.138 106.138 106.138 106.138 106.137 106.132 105.774 106.101 98.4403 104.859 
        </DataArray>
        <DataArray type="Float32" Name="Pressure_Mixture" format="ascii">
6.27178e+06 6.27188e+06 6.27014e+06 6.2709e+06 1.74939e+07 1.74007e+07 6.28923e+06 6.29114e+06 1.59542e+07 1.6168e+07 1.78574e+07 1.78581e+07 2.08468e+07 2.05394e+07 6.27186e+06 6.27185e+06 9.06363e+06 1.02227e+07 6.78208e+06 7.15073e+06 7.20863e+06 6.26546e+06 6.27186e+06 6.27186e+06 9.50227e+06 9.52268e+06 6.27186e+06 6.27186e+06 6.27186e+06 6.27186e+06 6.27186e+06 6.27186e+06 6.24488e+06 6.27292e+06 6.27186e+06 6.27186e+06 6.27186e+06 6.27186e+06 6.27186e+06 5.49366e+06 5.49369e+06 6.27186e+06 6.27186e+06 6.27185e+06 6.27079e+06 6.22046e+06 6.22009e+06 6.27075e+06 6.27185e+06 6.27186e+06 6.27186e+06 6.27186e+06 5.18493e+06 6.27186e+06 6.27186e+06 6.27186e+06 6.27186e+06 6.27186e+06 6.27186e+06 6.27183e+06 6.27148e+06 6.24583e+06 6.26926e+06 5.72342e+06 6.18073e+06 
        </DataArray>
        <DataArray type="Float32" Name="Velocity_Mixture" NumberOfComponents="3" format="ascii">
-0.00296305 7.8445e-05 0 0.000712559 0.00023202 0 -0.0361126 0.0547006 0 -0.0197589 -0.031685 0 265.284 -8.10265 0 266.156 9.95857 0 0.566613 -0.209716 0 0.630685 0.241139 0 252.692 46.2011 0 249.285 -38.8349 0 332.143 0.424577 0 332.138 -0.427137 0 305.092 -38.3444 0 301.254 52.2441 0 0.000132548 0.000122873 0 -0.000259574 0.000199134 0 94.9984 -5.84627 0 91.8755 34.8334 0 17.1605 -4.95507 0 31.4464 -7.9832 0 31.0322 7.26011 0 -0.729718 -7.86672 0 0 0 0 0 0 0 106.692 -17.921 0 107.611 19.3599 0 0 0 0 0 0 0 0 0 0 0 0 0 0 0 0 0 0 0 -0.523295 -0.236455 0 -0.273186 -0.198325 0 0 0 0 0 0 0 0 0 0 0 0 0 0 0 0 7.39515 -1.35256 0 7.39481 1.35281 0 0 0 0 0 0 0 2.98426e-05 -8.77671e-05 0 0.0062268 -0.00815459 0 0.338877 -0.236762 0 0.369363 0.226641 0 0.00704969 0.00810534 0 3.95156e-05 9.13075e-05 0 0 0 0 0 0 0 0 0 0 41.0433 0.000208161 0 0 0 0 0 0 0 0 0 0 0 0 0 3.58225e-06 0 0 0 0 0 0.00143092 -5.21074e-05 0 0.00349871 0.000645072 0 0.276659 0.0432123 0 0.151341 -0.0052173 0 8.32801 -0.00170934 0 5.81013 -0.175712 0 
        </DataArray>
        <DataArray type="Float32" Name="gradRho" format="ascii">
0.00677096 0.00392939 0.0638295 0.168597 63.5032 63.4761 4.92557 4.6098 64.6797 72.3756 31.8603 32.7924 28.6698 27.9126 0.000135441 0.000341332 49.7424 48.3246 11.5746 16.1175 15.024 15.1292 4.01343e-05 1.74362e-05 62.6834 63.4189 0 4.35601e-08 8.93415e-08 6.63521e-07 1.72233e-06 0 0.088043 2.47762 0 0 0 0 0 0.911332 0.911454 1.07811e-09 2.56255e-07 5.19956e-05 0.00380714 0.0842895 0.0826454 0.00355935 4.64731e-05 2.17492e-07 1.07811e-09 0 0.827458 0 0 2.67172e-08 6.0653e-08 1.94948e-05 9.73037e-06 0.00175047 0.0026921 0.149123 0.116758 2.55904 2.30016 
        </DataArray>
      </CellData>
    </Piece>
  </UnstructuredGrid>
</VTKFile>
