<?xml version="1.0"?>
<VTKFile type="UnstructuredGrid" version="0.1" byte_order="LittleEndian">
  <UnstructuredGrid>
    <Piece NumberOfPoints="50" NumberOfCells="65">
      <Points>
        <DataArray type="Float32" NumberOfComponents="3" format="ascii">
          0 5 0 0 -5 0 15 0.2 0 15 -0.2 0 35 0.2 0 35 -0.2 0 2.14286 4.31429 0 4.28571 3.62857 0 6.42857 2.94286 0 8.57143 2.25714 0 10.7143 1.57143 0 12.8571 0.885714 0 17.8571 0.2 0 20.7143 0.2 0 23.5714 0.2 0 26.4286 0.2 0 29.2857 0.2 0 32.1429 0.2 0 32.1429 -0.2 0 29.2857 -0.2 0 26.4286 -0.2 0 23.5714 -0.2 0 20.7143 -0.2 0 17.8571 -0.2 0 12.8571 -0.885714 0 10.7143 -1.57143 0 8.57143 -2.25714 0 6.42857 -2.94286 0 4.28571 -3.62857 0 2.14286 -4.31429 0 0 -2.5 0 0 -6.16307e-12 0 0 2.5 0 3.95974 -5.7158e-13 0 13.9286 -3.66374e-15 0 6.61813 2.81487e-12 0 2.86365 2.0434 0 2.86365 -2.0434 0 9.43036 1.987e-12 0 11.3926 2.79508e-14 0 4.83116 1.72297 0 4.83116 -1.72297 0 1.90629 -3.21031e-12 0 33.5714 0 0 16.4286 -1.80625e-18 0 25 6.93889e-18 0 19.2857 -6.93889e-18 0 30.7143 0 0 22.1429 0 0 27.8571 0 0 
        </DataArray>
      </Points>
      <Cells>
        <DataArray type="Int32" Name="connectivity" format="ascii">
          8 9 35 26 27 35 8 35 40 27 41 35 30 42 37 32 36 42 33 40 35 33 35 41 29 30 37 6 36 32 30 31 42 31 32 42 0 6 32 30 29 1 26 35 38 9 38 35 6 7 36 28 29 37 7 40 36 33 41 37 33 36 40 28 37 41 9 10 38 25 26 38 33 42 36 33 37 42 11 34 24 24 25 39 10 11 39 25 38 39 10 39 38 11 24 39 27 28 41 7 8 40 2 34 11 3 24 34 2 3 34 2 44 12 3 23 44 4 17 43 5 43 18 12 46 13 13 48 14 14 45 15 15 49 16 16 47 17 18 47 19 19 49 20 20 45 21 21 48 22 22 46 23 2 3 44 4 43 5 12 44 23 12 23 46 13 46 22 13 22 48 14 21 45 14 48 21 15 45 20 15 20 49 16 19 47 16 49 19 17 18 43 17 47 18 
        </DataArray>
        <DataArray type="Int32" Name="offsets" format="ascii">
          3 6 9 12 15 18 21 24 27 30 33 36 39 42 45 48 51 54 57 60 63 66 69 72 75 78 81 84 87 90 93 96 99 102 105 108 111 114 117 120 123 126 129 132 135 138 141 144 147 150 153 156 159 162 165 168 171 174 177 180 183 186 189 192 195 
        </DataArray>
        <DataArray type="UInt8" Name="types" format="ascii">
          5 5 5 5 5 5 5 5 5 5 5 5 5 5 5 5 5 5 5 5 5 5 5 5 5 5 5 5 5 5 5 5 5 5 5 5 5 5 5 5 5 5 5 5 5 5 5 5 5 5 5 5 5 5 5 5 5 5 5 5 5 5 5 5 5 
        </DataArray>
      </Cells>
      <CellData>
        <DataArray type="Float32" Name="F0_Alpha_SG_co2liq_mod.xml" format="ascii">
1.72622e-10 1.72643e-10 1.7231e-10 1.72479e-10 1.65306e-10 1.65279e-10 1.70493e-10 1.70347e-10 1.64504e-10 1.64313e-10 1.67737e-10 1.67738e-10 1.63134e-10 1.63433e-10 1.72682e-10 1.72676e-10 1.64377e-10 1.63643e-10 1.66248e-10 1.6648e-10 1.66554e-10 1.66166e-10 1.72682e-10 1.72682e-10 1.65818e-10 1.65842e-10 1.72682e-10 1.72682e-10 1.72682e-10 1.72682e-10 1.72682e-10 1.72682e-10 1.70939e-10 1.70812e-10 1.72682e-10 1.72682e-10 1.72682e-10 1.72682e-10 1.72682e-10 1.73247e-10 1.73247e-10 1.72682e-10 1.72682e-10 1.72683e-10 1.72696e-10 1.7282e-10 1.72819e-10 1.72696e-10 1.72683e-10 1.72682e-10 1.72682e-10 1.72682e-10 1.73292e-10 1.72682e-10 1.72682e-10 1.72682e-10 1.72682e-10 1.72682e-10 1.72682e-10 1.72683e-10 1.7269e-10 1.72781e-10 1.72703e-10 1.7316e-10 1.72861e-10 
        </DataArray>
        <DataArray type="Float32" Name="F0_Density_SG_co2liq_mod.xml" format="ascii">
5900.92 5899.6 5920.09 5909.71 6466.57 6468.16 6025.62 6033.77 6515.75 6527.52 6344.37 6344.35 6644.53 6624.73 5897.1 5897.53 6440.02 6485.79 6271.84 6281.67 6277.45 6277.85 5897.13 5897.12 6368.44 6366.9 5897.13 5897.13 5897.13 5897.13 5897.12 5897.13 5998.1 6004.59 5897.13 5897.13 5897.13 5897.13 5897.13 5858.91 5858.92 5897.13 5897.13 5897.09 5896.25 5888.24 5888.27 5896.24 5897.09 5897.13 5897.13 5897.13 5851.84 5897.13 5897.13 5897.13 5897.13 5897.11 5897.13 5897.05 5896.6 5890.8 5895.78 5865.25 5885.5 
        </DataArray>
        <DataArray type="Float32" Name="F0_Temperature_SG_co2liq_mod.xml" format="ascii">
41.7924 41.7883 41.8469 41.8184 42.408 42.4086 42.0571 42.0693 42.4267 42.4309 42.35 42.35 42.4662 42.4609 41.7806 41.7819 42.3969 42.4156 42.3058 42.3123 42.3095 42.3098 41.7807 41.7807 42.3629 42.3621 41.7807 41.7807 41.7807 41.7807 41.7806 41.7807 42.0126 42.0236 41.7807 41.7807 41.7807 41.7807 41.7807 41.6366 41.6366 41.7807 41.7807 41.7805 41.7779 41.7517 41.7518 41.7779 41.7805 41.7807 41.7807 41.7807 41.6026 41.7807 41.7807 41.7807 41.7807 41.7806 41.7807 41.7804 41.779 41.7602 41.7764 41.6646 41.7422 
        </DataArray>
        <DataArray type="Float32" Name="F0_Mass fraction_SG_co2liq_mod.xml" format="ascii">
9.43874e-09 9.49231e-09 8.74967e-09 9.10764e-09 2.56235e-09 2.55874e-09 6.40999e-09 6.28999e-09 2.45345e-09 2.42891e-09 2.78094e-09 2.78103e-09 2.10642e-09 2.13973e-09 9.59565e-09 9.57753e-09 2.96974e-09 2.83084e-09 4.06147e-09 3.80368e-09 3.82425e-09 4.01556e-09 9.59459e-09 9.59467e-09 3.1267e-09 3.13269e-09 9.5944e-09 9.5944e-09 9.59444e-09 9.5944e-09 9.59483e-09 9.5944e-09 6.92527e-09 6.82934e-09 9.5944e-09 9.5944e-09 9.5944e-09 9.5944e-09 9.5944e-09 1.16939e-08 1.16936e-08 9.5944e-09 9.59445e-09 9.59621e-09 9.63173e-09 9.989e-09 9.98751e-09 9.63185e-09 9.59623e-09 9.59445e-09 9.5944e-09 9.5944e-09 1.24831e-08 9.5944e-09 9.5944e-09 9.5944e-09 9.59442e-09 9.59532e-09 9.5945e-09 9.59771e-09 9.61685e-09 9.87085e-09 9.65181e-09 1.12563e-08 1.01219e-08 
        </DataArray>
        <DataArray type="Float32" Name="F1_Alpha_SG_co2gas_mod.xml" format="ascii">
1 1 1 1 1 1 1 1 1 1 1 1 1 1 1 1 1 1 1 1 1 1 1 1 1 1 1 1 1 1 1 1 1 1 1 1 1 1 1 1 1 1 1 1 1 1 1 1 1 1 1 1 1 1 1 1 1 1 1 1 1 1 1 1 1 
        </DataArray>
        <DataArray type="Float32" Name="F1_Density_SG_co2gas_mod.xml" format="ascii">
107.92 107.3 116.586 111.917 417.18 417.806 160.269 163.408 436.882 441.579 382.672 382.659 514.592 505.996 106.124 106.328 356.46 374.926 256.725 274.937 273.396 259.781 106.136 106.135 337.737 337.058 106.138 106.138 106.137 106.138 106.133 106.138 148.053 150.183 106.138 106.138 106.138 106.138 106.138 86.8005 86.8027 106.138 106.137 106.117 105.719 101.873 101.888 105.718 106.117 106.137 106.138 106.138 81.236 106.138 106.138 106.138 106.138 106.127 106.137 106.1 105.886 103.113 105.495 90.2274 100.512 
        </DataArray>
        <DataArray type="Float32" Name="F1_Temperature_SG_co2gas_mod.xml" format="ascii">
466.876 466.697 469.58 468.246 377.728 377.829 479.2 479.882 380.308 380.888 355.504 355.503 366.063 365.563 466.382 466.436 429.035 429.247 479.284 453.983 453.758 477.819 466.385 466.385 415.456 415.486 466.385 466.385 466.385 466.385 466.384 466.385 481.397 483.322 466.385 466.385 466.385 466.385 466.385 461.145 461.146 466.385 466.385 466.38 466.275 465.255 465.257 466.275 466.38 466.385 466.385 466.385 469.161 466.385 466.385 466.385 466.385 466.383 466.385 466.376 466.319 465.582 466.218 462.031 464.993 
        </DataArray>
        <DataArray type="Float32" Name="F1_Mass fraction_SG_co2gas_mod.xml" format="ascii">
1 1 1 1 1 1 1 1 1 1 1 1 1 1 1 1 1 1 1 1 1 1 1 1 1 1 1 1 1 1 1 1 1 1 1 1 1 1 1 1 1 1 1 1 1 1 1 1 1 1 1 1 1 1 1 1 1 1 1 1 1 1 1 1 1 
        </DataArray>
        <DataArray type="Float32" Name="Density_Mixture" format="ascii">
107.92 107.3 116.586 111.917 417.18 417.806 160.269 163.408 436.882 441.579 382.672 382.659 514.592 505.996 106.124 106.328 356.46 374.926 256.725 274.937 273.396 259.781 106.136 106.135 337.737 337.058 106.138 106.138 106.137 106.138 106.133 106.138 148.053 150.183 106.138 106.138 106.138 106.138 106.138 86.8005 86.8027 106.138 106.137 106.117 105.719 101.873 101.888 105.718 106.117 106.137 106.138 106.138 81.236 106.138 106.138 106.138 106.138 106.127 106.137 106.1 105.886 103.113 105.495 90.2274 100.512 
        </DataArray>
        <DataArray type="Float32" Name="Pressure_Mixture" format="ascii">
6.39971e+06 6.35507e+06 7.03034e+06 6.69174e+06 2.19001e+07 2.19404e+07 1.02194e+07 1.0453e+07 2.31392e+07 2.34346e+07 1.87856e+07 1.87849e+07 2.63527e+07 2.58611e+07 6.27085e+06 6.28547e+06 2.12283e+07 2.23853e+07 1.69062e+07 1.71625e+07 1.70524e+07 1.7063e+07 6.2717e+06 6.27164e+06 1.94036e+07 1.93642e+07 6.27186e+06 6.27186e+06 6.27183e+06 6.27186e+06 6.27151e+06 6.27186e+06 9.41997e+06 9.61007e+06 6.27186e+06 6.27186e+06 6.27186e+06 6.27186e+06 6.27186e+06 4.902e+06 4.90216e+06 6.27186e+06 6.27182e+06 6.2704e+06 6.24193e+06 5.96757e+06 5.96864e+06 6.24184e+06 6.27038e+06 6.27182e+06 6.27186e+06 6.27186e+06 4.62511e+06 6.27186e+06 6.27186e+06 6.27186e+06 6.27184e+06 6.27112e+06 6.27177e+06 6.26919e+06 6.25383e+06 6.05592e+06 6.22597e+06 5.14207e+06 5.8722e+06 
        </DataArray>
        <DataArray type="Float32" Name="Velocity_Mixture" NumberOfComponents="3" format="ascii">
4.77571 -0.085443 0 2.20083 0.525381 0 22.626 -1.60254 0 13.7793 -7.57097 0 318.741 9.0442 0 319.773 -10.8487 0 123.313 -7.09818 0 128.906 6.69055 0 308.829 43.7526 0 307.873 -42.9716 0 342.984 0.112283 0 342.986 -0.110755 0 295.333 -43.6062 0 296.759 46.138 0 -0.0371431 -0.110679 0 0.415688 -0.25051 0 274.885 -54.2768 0 275.882 75.1072 0 231.683 -37.1387 0 243.062 5.33775 0 244.005 -1.60513 0 217.048 62.7307 0 -0.0293535 -0.0234579 0 -0.00351041 -0.00161927 0 279.063 -19.4123 0 279.588 21.389 0 0 0 0 1.76556e-05 0 0 -0.00100871 -0.000310171 0 0.000646884 0.00204418 0 -0.00976616 0.00780984 0 -9.22356e-06 2.24584e-05 0 73.0989 25.6835 0 102.854 -6.90315 0 0 0 0 0 0 0 0 0 0 0 0 0 0 0 0 18.7753 -0.940327 0 18.777 0.945122 0 0 0 0 0.000218659 -0.000243707 0 0.00979452 -0.0069741 0 0.22274 -0.0979372 0 2.67269 -0.571569 0 2.72912 0.548858 0 0.234828 0.0940785 0 0.0105865 0.00677843 0 0.000247816 0.000240176 0 0 0 0 0 0 0 60.2587 0.00547845 0 0 0 0 0 0 0 6.08194e-05 0 0 0.000144444 1.03202e-05 0 0.00840287 0.00103698 0 0.00497082 -0.000152317 0 0.165689 -0.00459239 0 0.241234 0.0211577 0 3.7521 0.173271 0 2.91152 -0.066002 0 30.7094 -0.00657651 0 24.0978 -0.268754 0 
        </DataArray>
        <DataArray type="Float32" Name="gradRho" format="ascii">
2.75564 1.52191 13.7428 13.9526 23.5816 24.4857 52.1466 53.2138 40.373 49.4832 23.9672 24.4084 17.2376 16.3172 0.28695 0.529063 48.3743 44.4218 70.4185 57.7747 59.0721 76.8427 0.0658034 0.0044307 48.019 47.2959 6.78253e-06 1.03247e-05 0.00172275 0.0019784 0.0019666 0.000191731 43.7425 41.5898 9.85517e-08 1.09007e-07 1.51608e-08 2.59745e-08 2.18309e-08 0.850279 0.851016 3.0762e-06 0.000105794 0.00262756 0.0317836 0.190073 0.191529 0.0314755 0.00253888 0.000101217 2.63402e-06 8.9295e-09 0.802413 8.42186e-07 1.27973e-06 7.38348e-05 0.000103344 0.00418447 0.00326283 0.0768394 0.0912957 0.952173 0.855085 3.9288 3.73108 
        </DataArray>
      </CellData>
    </Piece>
  </UnstructuredGrid>
</VTKFile>
