<?xml version="1.0"?>
<VTKFile type="UnstructuredGrid" version="0.1" byte_order="LittleEndian">
  <UnstructuredGrid>
    <Piece NumberOfPoints="50" NumberOfCells="65">
      <Points>
        <DataArray type="Float32" NumberOfComponents="3" format="ascii">
          0 5 0 0 -5 0 15 0.2 0 15 -0.2 0 35 0.2 0 35 -0.2 0 2.14286 4.31429 0 4.28571 3.62857 0 6.42857 2.94286 0 8.57143 2.25714 0 10.7143 1.57143 0 12.8571 0.885714 0 17.8571 0.2 0 20.7143 0.2 0 23.5714 0.2 0 26.4286 0.2 0 29.2857 0.2 0 32.1429 0.2 0 32.1429 -0.2 0 29.2857 -0.2 0 26.4286 -0.2 0 23.5714 -0.2 0 20.7143 -0.2 0 17.8571 -0.2 0 12.8571 -0.885714 0 10.7143 -1.57143 0 8.57143 -2.25714 0 6.42857 -2.94286 0 4.28571 -3.62857 0 2.14286 -4.31429 0 0 -2.5 0 0 -6.16307e-12 0 0 2.5 0 3.95974 -5.7158e-13 0 13.9286 -3.66374e-15 0 6.61813 2.81487e-12 0 2.86365 2.0434 0 2.86365 -2.0434 0 9.43036 1.987e-12 0 11.3926 2.79508e-14 0 4.83116 1.72297 0 4.83116 -1.72297 0 1.90629 -3.21031e-12 0 33.5714 0 0 16.4286 -1.80625e-18 0 25 6.93889e-18 0 19.2857 -6.93889e-18 0 30.7143 0 0 22.1429 0 0 27.8571 0 0 
        </DataArray>
      </Points>
      <Cells>
        <DataArray type="Int32" Name="connectivity" format="ascii">
          8 9 35 26 27 35 8 35 40 27 41 35 30 42 37 32 36 42 33 40 35 33 35 41 29 30 37 6 36 32 30 31 42 31 32 42 0 6 32 30 29 1 26 35 38 9 38 35 6 7 36 28 29 37 7 40 36 33 41 37 33 36 40 28 37 41 9 10 38 25 26 38 33 42 36 33 37 42 11 34 24 24 25 39 10 11 39 25 38 39 10 39 38 11 24 39 27 28 41 7 8 40 2 34 11 3 24 34 2 3 34 2 44 12 3 23 44 4 17 43 5 43 18 12 46 13 13 48 14 14 45 15 15 49 16 16 47 17 18 47 19 19 49 20 20 45 21 21 48 22 22 46 23 2 3 44 4 43 5 12 44 23 12 23 46 13 46 22 13 22 48 14 21 45 14 48 21 15 45 20 15 20 49 16 19 47 16 49 19 17 18 43 17 47 18 
        </DataArray>
        <DataArray type="Int32" Name="offsets" format="ascii">
          3 6 9 12 15 18 21 24 27 30 33 36 39 42 45 48 51 54 57 60 63 66 69 72 75 78 81 84 87 90 93 96 99 102 105 108 111 114 117 120 123 126 129 132 135 138 141 144 147 150 153 156 159 162 165 168 171 174 177 180 183 186 189 192 195 
        </DataArray>
        <DataArray type="UInt8" Name="types" format="ascii">
          5 5 5 5 5 5 5 5 5 5 5 5 5 5 5 5 5 5 5 5 5 5 5 5 5 5 5 5 5 5 5 5 5 5 5 5 5 5 5 5 5 5 5 5 5 5 5 5 5 5 5 5 5 5 5 5 5 5 5 5 5 5 5 5 5 
        </DataArray>
      </Cells>
      <CellData>
        <DataArray type="Float32" Name="F0_Alpha_SG_co2liq_mod.xml" format="ascii">
1.72682e-10 1.72682e-10 1.72682e-10 1.72682e-10 1.72319e-10 1.72319e-10 1.72682e-10 1.72682e-10 1.72419e-10 1.72424e-10 1.70644e-10 1.70644e-10 1.70718e-10 1.70715e-10 1.72682e-10 1.72682e-10 1.72686e-10 1.72687e-10 1.72683e-10 1.72682e-10 1.72682e-10 1.72682e-10 1.72682e-10 1.72682e-10 1.7269e-10 1.7269e-10 1.72682e-10 1.72682e-10 1.72682e-10 1.72682e-10 1.72682e-10 1.72682e-10 1.72682e-10 1.72682e-10 1.72682e-10 1.72682e-10 1.72682e-10 1.72682e-10 1.72682e-10 1.72732e-10 1.72732e-10 1.72682e-10 1.72682e-10 1.72682e-10 1.72682e-10 1.72682e-10 1.72682e-10 1.72682e-10 1.72682e-10 1.72682e-10 1.72682e-10 1.72682e-10 1.72851e-10 1.72682e-10 1.72682e-10 1.72682e-10 1.72682e-10 1.72682e-10 1.72682e-10 1.72682e-10 1.72682e-10 1.72682e-10 1.72682e-10 1.72689e-10 1.72682e-10 
        </DataArray>
        <DataArray type="Float32" Name="F0_Density_SG_co2liq_mod.xml" format="ascii">
5897.13 5897.13 5897.13 5897.13 5921.18 5921.18 5897.13 5897.13 5914.54 5914.2 6058.41 6058.41 6050.3 6050.34 5897.13 5897.13 5896.9 5896.81 5897.08 5897.13 5897.12 5897.12 5897.13 5897.13 5896.62 5896.63 5897.13 5897.13 5897.13 5897.13 5897.13 5897.13 5897.13 5897.13 5897.13 5897.13 5897.13 5897.13 5897.13 5893.94 5893.94 5897.13 5897.13 5897.13 5897.13 5897.13 5897.13 5897.13 5897.13 5897.13 5897.13 5897.13 5885.41 5897.13 5897.13 5897.13 5897.13 5897.13 5897.13 5897.13 5897.13 5897.13 5897.13 5896.67 5897.12 
        </DataArray>
        <DataArray type="Float32" Name="F0_Temperature_SG_co2liq_mod.xml" format="ascii">
41.7807 41.7807 41.7807 41.7807 41.8498 41.8498 41.7807 41.7807 41.8319 41.831 42.1038 42.1038 42.0928 42.0929 41.7807 41.7807 41.78 41.7797 41.7805 41.7807 41.7807 41.7806 41.7807 41.7807 41.7791 41.7791 41.7807 41.7807 41.7807 41.7807 41.7807 41.7807 41.7807 41.7807 41.7807 41.7807 41.7807 41.7807 41.7807 41.7705 41.7705 41.7807 41.7807 41.7807 41.7807 41.7807 41.7807 41.7807 41.7807 41.7807 41.7807 41.7807 41.742 41.7807 41.7807 41.7807 41.7807 41.7807 41.7807 41.7807 41.7807 41.7807 41.7807 41.7792 41.7806 
        </DataArray>
        <DataArray type="Float32" Name="F0_Mass fraction_SG_co2liq_mod.xml" format="ascii">
9.5944e-09 9.5944e-09 9.5944e-09 9.5944e-09 8.64826e-09 8.64838e-09 9.5944e-09 9.5944e-09 8.88882e-09 8.90127e-09 5.21419e-09 5.21416e-09 5.36086e-09 5.36202e-09 9.5944e-09 9.5944e-09 9.60405e-09 9.6079e-09 9.59635e-09 9.59461e-09 9.59462e-09 9.595e-09 9.5944e-09 9.5944e-09 9.61573e-09 9.61572e-09 9.5944e-09 9.5944e-09 9.5944e-09 9.5944e-09 9.5944e-09 9.5944e-09 9.5944e-09 9.5944e-09 9.5944e-09 9.5944e-09 9.5944e-09 9.5944e-09 9.5944e-09 9.73101e-09 9.73101e-09 9.5944e-09 9.5944e-09 9.5944e-09 9.5944e-09 9.59447e-09 9.59449e-09 9.5944e-09 9.5944e-09 9.5944e-09 9.5944e-09 9.5944e-09 1.01646e-08 9.5944e-09 9.5944e-09 9.5944e-09 9.5944e-09 9.5944e-09 9.5944e-09 9.5944e-09 9.5944e-09 9.5944e-09 9.5944e-09 9.61392e-09 9.59502e-09 
        </DataArray>
        <DataArray type="Float32" Name="F1_Alpha_SG_co2gas_mod.xml" format="ascii">
1 1 1 1 1 1 1 1 1 1 1 1 1 1 1 1 1 1 1 1 1 1 1 1 1 1 1 1 1 1 1 1 1 1 1 1 1 1 1 1 1 1 1 1 1 1 1 1 1 1 1 1 1 1 1 1 1 1 1 1 1 1 1 1 1 
        </DataArray>
        <DataArray type="Float32" Name="F1_Density_SG_co2gas_mod.xml" format="ascii">
106.138 106.138 106.138 106.138 117.981 117.979 106.138 106.138 114.726 114.563 198.273 198.274 192.673 192.63 106.138 106.138 106.029 105.986 106.116 106.135 106.135 106.131 106.138 106.138 105.898 105.898 106.138 106.138 106.138 106.138 106.138 106.138 106.138 106.138 106.138 106.138 106.138 106.138 106.138 104.621 104.621 106.138 106.138 106.138 106.138 106.137 106.137 106.138 106.138 106.138 106.138 106.138 100.082 106.138 106.138 106.138 106.138 106.138 106.138 106.138 106.138 106.138 106.138 105.918 106.131 
        </DataArray>
        <DataArray type="Float32" Name="F1_Temperature_SG_co2gas_mod.xml" format="ascii">
466.385 466.385 466.385 466.385 466.092 466.092 466.385 466.385 466.339 466.333 419.882 419.882 423.864 424.003 466.385 466.385 466.357 466.346 466.38 466.385 466.385 466.384 466.385 466.385 466.323 466.323 466.385 466.385 466.385 466.385 466.385 466.385 466.385 466.385 466.385 466.385 466.385 466.385 466.385 465.99 465.99 466.385 466.385 466.385 466.385 466.385 466.385 466.385 466.385 466.385 466.385 466.385 466.786 466.385 466.385 466.385 466.385 466.385 466.385 466.385 466.385 466.385 466.385 466.328 466.383 
        </DataArray>
        <DataArray type="Float32" Name="F1_Mass fraction_SG_co2gas_mod.xml" format="ascii">
1 1 1 1 1 1 1 1 1 1 1 1 1 1 1 1 1 1 1 1 1 1 1 1 1 1 1 1 1 1 1 1 1 1 1 1 1 1 1 1 1 1 1 1 1 1 1 1 1 1 1 1 1 1 1 1 1 1 1 1 1 1 1 1 1 
        </DataArray>
        <DataArray type="Float32" Name="Density_Mixture" format="ascii">
106.138 106.138 106.138 106.138 117.981 117.979 106.138 106.138 114.726 114.563 198.273 198.274 192.673 192.63 106.138 106.138 106.029 105.986 106.116 106.135 106.135 106.131 106.138 106.138 105.898 105.898 106.138 106.138 106.138 106.138 106.138 106.138 106.138 106.138 106.138 106.138 106.138 106.138 106.138 104.621 104.621 106.138 106.138 106.138 106.138 106.137 106.137 106.138 106.138 106.138 106.138 106.138 100.082 106.138 106.138 106.138 106.138 106.138 106.138 106.138 106.138 106.138 106.138 105.918 106.131 
        </DataArray>
        <DataArray type="Float32" Name="Pressure_Mixture" format="ascii">
6.27186e+06 6.27186e+06 6.27186e+06 6.27186e+06 7.06555e+06 7.06544e+06 6.27186e+06 6.27186e+06 6.8503e+06 6.83916e+06 1.11521e+07 1.11522e+07 1.09231e+07 1.09243e+07 6.27186e+06 6.27186e+06 6.2641e+06 6.26101e+06 6.27029e+06 6.27169e+06 6.27168e+06 6.27137e+06 6.27186e+06 6.27186e+06 6.25475e+06 6.25475e+06 6.27186e+06 6.27186e+06 6.27186e+06 6.27186e+06 6.27186e+06 6.27186e+06 6.27186e+06 6.27186e+06 6.27186e+06 6.27186e+06 6.27186e+06 6.27186e+06 6.27186e+06 6.16361e+06 6.16361e+06 6.27186e+06 6.27186e+06 6.27186e+06 6.27186e+06 6.2718e+06 6.27178e+06 6.27186e+06 6.27186e+06 6.27186e+06 6.27186e+06 6.27186e+06 5.86928e+06 6.27186e+06 6.27186e+06 6.27186e+06 6.27186e+06 6.27186e+06 6.27186e+06 6.27186e+06 6.27186e+06 6.27185e+06 6.27186e+06 6.25618e+06 6.27136e+06 
        </DataArray>
        <DataArray type="Float32" Name="Velocity_Mixture" NumberOfComponents="3" format="ascii">
0 0 0 0 0 0 0 0 0 0 0 0 32.3447 -10.0392 0 32.3491 10.0613 0 -1.08938e-06 0 0 0 0 0 22.1904 10.7443 0 22.0157 -10.2231 0 210.281 1.50183 0 210.28 -1.50299 0 197.369 -5.5693 0 194.544 14.3015 0 0 0 0 0 0 0 -0.415442 -0.205051 0 -0.358613 0.100751 0 -0.0424692 0.036215 0 -0.00515913 0.00236128 0 -0.00499554 -0.0012411 0 -0.0130802 -0.0111468 0 0 0 0 0 0 0 -0.543882 0.241491 0 -0.543742 -0.241399 0 0 0 0 0 0 0 0 0 0 0 0 0 0 0 0 0 0 0 4.98e-05 -9.2391e-06 0 1.45165e-05 9.46552e-06 0 0 0 0 0 0 0 0 0 0 0 0 0 0 0 0 0.602735 -1.27998 0 0.602735 1.27998 0 0 0 0 0 0 0 0 0 0 0 0 0 0.000259792 -0.00117641 0 0.00036968 0.00154399 0 0 0 0 0 0 0 0 0 0 0 0 0 0 0 0 9.57255 0 0 0 0 0 0 0 0 0 0 0 0 0 0 0 0 0 0 0 0 0 0 0 0 0 0 3.01504e-05 1.91709e-05 0 0 0 0 0.136279 0 0 0.0214159 -0.000759951 0 
        </DataArray>
        <DataArray type="Float32" Name="gradRho" format="ascii">
5.19576e-07 1.1984e-07 3.58699e-07 6.59912e-06 27.7903 27.8102 0.000962027 0.000914066 22.3349 22.2975 55.7643 55.7659 18.441 18.3922 1.18746e-10 1.27097e-09 2.80633 2.86398 0.0389377 0.0806952 0.0792643 0.0486163 0 0 4.07914 4.07966 0 0 0 0 0 0 0.00237286 0.00769209 0 0 0 0 0 0.934648 0.934648 0 0 0 1.99924e-07 0.00149697 0.00136969 1.90056e-07 0 0 0 0 0.654396 0 0 0 0 0 0 1.33909e-09 1.18212e-08 0.000167407 1.55e-05 0.198991 0.0748988 
        </DataArray>
      </CellData>
    </Piece>
  </UnstructuredGrid>
</VTKFile>
