<?xml version="1.0"?>
<VTKFile type="UnstructuredGrid" version="0.1" byte_order="LittleEndian">
  <UnstructuredGrid>
    <Piece NumberOfPoints="50" NumberOfCells="65">
      <Points>
        <DataArray type="Float32" NumberOfComponents="3" format="ascii">
          0 5 0 0 -5 0 15 0.2 0 15 -0.2 0 35 0.2 0 35 -0.2 0 2.14286 4.31429 0 4.28571 3.62857 0 6.42857 2.94286 0 8.57143 2.25714 0 10.7143 1.57143 0 12.8571 0.885714 0 17.8571 0.2 0 20.7143 0.2 0 23.5714 0.2 0 26.4286 0.2 0 29.2857 0.2 0 32.1429 0.2 0 32.1429 -0.2 0 29.2857 -0.2 0 26.4286 -0.2 0 23.5714 -0.2 0 20.7143 -0.2 0 17.8571 -0.2 0 12.8571 -0.885714 0 10.7143 -1.57143 0 8.57143 -2.25714 0 6.42857 -2.94286 0 4.28571 -3.62857 0 2.14286 -4.31429 0 0 -2.5 0 0 -6.16307e-12 0 0 2.5 0 3.95974 -5.7158e-13 0 13.9286 -3.66374e-15 0 6.61813 2.81487e-12 0 2.86365 2.0434 0 2.86365 -2.0434 0 9.43036 1.987e-12 0 11.3926 2.79508e-14 0 4.83116 1.72297 0 4.83116 -1.72297 0 1.90629 -3.21031e-12 0 33.5714 0 0 16.4286 -1.80625e-18 0 25 6.93889e-18 0 19.2857 -6.93889e-18 0 30.7143 0 0 22.1429 0 0 27.8571 0 0 
        </DataArray>
      </Points>
      <Cells>
        <DataArray type="Int32" Name="connectivity" format="ascii">
          8 9 35 26 27 35 8 35 40 27 41 35 30 42 37 32 36 42 33 40 35 33 35 41 29 30 37 6 36 32 30 31 42 31 32 42 0 6 32 30 29 1 26 35 38 9 38 35 6 7 36 28 29 37 7 40 36 33 41 37 33 36 40 28 37 41 9 10 38 25 26 38 33 42 36 33 37 42 11 34 24 24 25 39 10 11 39 25 38 39 10 39 38 11 24 39 27 28 41 7 8 40 2 34 11 3 24 34 2 3 34 2 44 12 3 23 44 4 17 43 5 43 18 12 46 13 13 48 14 14 45 15 15 49 16 16 47 17 18 47 19 19 49 20 20 45 21 21 48 22 22 46 23 2 3 44 4 43 5 12 44 23 12 23 46 13 46 22 13 22 48 14 21 45 14 48 21 15 45 20 15 20 49 16 19 47 16 49 19 17 18 43 17 47 18 
        </DataArray>
        <DataArray type="Int32" Name="offsets" format="ascii">
          3 6 9 12 15 18 21 24 27 30 33 36 39 42 45 48 51 54 57 60 63 66 69 72 75 78 81 84 87 90 93 96 99 102 105 108 111 114 117 120 123 126 129 132 135 138 141 144 147 150 153 156 159 162 165 168 171 174 177 180 183 186 189 192 195 
        </DataArray>
        <DataArray type="UInt8" Name="types" format="ascii">
          5 5 5 5 5 5 5 5 5 5 5 5 5 5 5 5 5 5 5 5 5 5 5 5 5 5 5 5 5 5 5 5 5 5 5 5 5 5 5 5 5 5 5 5 5 5 5 5 5 5 5 5 5 5 5 5 5 5 5 5 5 5 5 5 5 
        </DataArray>
      </Cells>
      <CellData>
        <DataArray type="Float32" Name="F0_Alpha_SG_co2liq_mod.xml" format="ascii">
1.69661e-10 1.69308e-10 1.65904e-10 1.66313e-10 1.64968e-10 1.64887e-10 1.64576e-10 1.64162e-10 1.63389e-10 1.63338e-10 1.67779e-10 1.67779e-10 1.60914e-10 1.61214e-10 1.72368e-10 1.72003e-10 1.62357e-10 1.62558e-10 1.61963e-10 1.6276e-10 1.63353e-10 1.61461e-10 1.72641e-10 1.72693e-10 1.64105e-10 1.64158e-10 1.72682e-10 1.72682e-10 1.72687e-10 1.72686e-10 1.72698e-10 1.72683e-10 1.62309e-10 1.62481e-10 1.72682e-10 1.72682e-10 1.72682e-10 1.72682e-10 1.72682e-10 1.7337e-10 1.7337e-10 1.72682e-10 1.72683e-10 1.7269e-10 1.72748e-10 1.72982e-10 1.72982e-10 1.72748e-10 1.7269e-10 1.72683e-10 1.72682e-10 1.72682e-10 1.73399e-10 1.72682e-10 1.72682e-10 1.72682e-10 1.72682e-10 1.72687e-10 1.72683e-10 1.72693e-10 1.72729e-10 1.72922e-10 1.72768e-10 1.73302e-10 1.73038e-10 
        </DataArray>
        <DataArray type="Float32" Name="F0_Density_SG_co2liq_mod.xml" format="ascii">
6069.5 6088.82 6276.45 6253.99 6518.58 6523.61 6406.04 6430.85 6629.39 6632.41 6347.68 6347.65 6807.69 6787.14 5916.55 5938.39 6648.46 6638.29 6617.93 6585.42 6551.6 6647.1 5899.76 5896.45 6538.08 6535.15 5897.13 5897.13 5896.81 5896.9 5896.09 5897.1 6513.98 6501.91 5897.13 5897.13 5897.13 5897.13 5897.13 5849.56 5849.56 5897.13 5897.09 5896.63 5892.92 5877.5 5877.49 5892.93 5896.63 5897.09 5897.13 5897.13 5843.49 5897.13 5897.13 5897.13 5897.11 5896.81 5897.07 5896.41 5894.13 5881.54 5891.61 5854.86 5873.63 
        </DataArray>
        <DataArray type="Float32" Name="F0_Temperature_SG_co2liq_mod.xml" format="ascii">
42.1183 42.1421 42.3089 42.2935 42.4277 42.4295 42.3815 42.3928 42.4622 42.463 42.3518 42.3518 42.501 42.4974 41.8374 41.8927 42.4672 42.4646 42.4591 42.4496 42.439 42.4669 41.7889 41.7785 42.4345 42.4335 41.7807 41.7807 41.7797 41.78 41.7774 41.7806 42.4261 42.4217 41.7807 41.7807 41.7807 41.7807 41.7807 41.5909 41.5909 41.7807 41.7806 41.7791 41.7672 41.7134 41.7134 41.7672 41.7791 41.7806 41.7807 41.7807 41.5579 41.7807 41.7807 41.7807 41.7806 41.7797 41.7805 41.7784 41.7711 41.7283 41.7629 41.6175 41.6986 
        </DataArray>
        <DataArray type="Float32" Name="F0_Mass fraction_SG_co2liq_mod.xml" format="ascii">
5.8715e-09 5.65149e-09 4.18389e-09 4.31188e-09 2.35411e-09 2.34425e-09 3.19655e-09 3.11131e-09 2.12788e-09 2.12367e-09 2.74869e-09 2.74876e-09 1.84671e-09 1.87293e-09 8.86639e-09 8.20226e-09 2.20656e-09 2.21748e-09 2.41576e-09 2.42837e-09 2.48954e-09 2.36576e-09 9.48515e-09 9.6231e-09 2.41415e-09 2.41909e-09 9.59431e-09 9.59454e-09 9.60784e-09 9.60396e-09 9.63822e-09 9.59584e-09 2.99614e-09 3.04157e-09 9.59438e-09 9.5944e-09 9.5944e-09 9.5944e-09 9.5944e-09 1.24375e-08 1.24374e-08 9.59447e-09 9.59588e-09 9.6154e-09 9.77605e-09 1.053e-08 1.05301e-08 9.77564e-09 9.61545e-09 9.59589e-09 9.59447e-09 9.5944e-09 1.32526e-08 9.5944e-09 9.59443e-09 9.59452e-09 9.59524e-09 9.60785e-09 9.59682e-09 9.62498e-09 9.72304e-09 1.03168e-08 9.83488e-09 1.19965e-08 1.075e-08 
        </DataArray>
        <DataArray type="Float32" Name="F1_Alpha_SG_co2gas_mod.xml" format="ascii">
1 1 1 1 1 1 1 1 1 1 1 1 1 1 1 1 1 1 1 1 1 1 1 1 1 1 1 1 1 1 1 1 1 1 1 1 1 1 1 1 1 1 1 1 1 1 1 1 1 1 1 1 1 1 1 1 1 1 1 1 1 1 1 1 1 
        </DataArray>
        <DataArray type="Float32" Name="F1_Density_SG_co2gas_mod.xml" format="ascii">
175.382 182.409 248.881 241.222 456.8 458.85 329.819 339.311 509.038 510.118 387.46 387.45 593.192 584.209 115.022 124.529 489.188 486.636 443.695 441.383 429.888 453.659 107.382 105.816 444.435 443.472 106.139 106.136 105.987 106.03 105.647 106.122 352.879 347.333 106.138 106.138 106.138 106.138 106.138 81.5389 81.5394 106.137 106.121 105.902 104.131 96.5526 96.5522 104.135 105.901 106.121 106.137 106.138 76.4571 106.138 106.137 106.136 106.128 105.987 106.111 105.795 104.709 98.5819 103.497 84.5792 94.5449 
        </DataArray>
        <DataArray type="Float32" Name="F1_Temperature_SG_co2gas_mod.xml" format="ascii">
486.962 488.597 497.727 496.696 364.8 365.073 445.579 445.973 364.951 365.194 352.628 352.627 364.439 364.08 469.068 471.969 386.449 384.891 414.258 403.745 400.952 416.2 466.703 466.301 382.561 382.246 466.386 466.385 466.346 466.357 466.256 466.381 469.966 471.428 466.385 466.385 466.385 466.385 466.385 459.65 459.651 466.385 466.381 466.323 465.855 463.818 463.813 465.856 466.323 466.381 466.385 466.385 467.591 466.385 466.385 466.385 466.383 466.345 466.378 466.295 466.007 464.354 465.703 460.373 463.485 
        </DataArray>
        <DataArray type="Float32" Name="F1_Mass fraction_SG_co2gas_mod.xml" format="ascii">
1 1 1 1 1 1 1 1 1 1 1 1 1 1 1 1 1 1 1 1 1 1 1 1 1 1 1 1 1 1 1 1 1 1 1 1 1 1 1 1 1 1 1 1 1 1 1 1 1 1 1 1 1 1 1 1 1 1 1 1 1 1 1 1 1 
        </DataArray>
        <DataArray type="Float32" Name="Density_Mixture" format="ascii">
175.382 182.409 248.881 241.222 456.8 458.85 329.819 339.311 509.038 510.118 387.46 387.45 593.192 584.209 115.022 124.529 489.188 486.636 443.695 441.383 429.888 453.659 107.382 105.816 444.435 443.472 106.139 106.136 105.987 106.03 105.647 106.122 352.879 347.333 106.138 106.138 106.138 106.138 106.138 81.5389 81.5394 106.137 106.121 105.902 104.131 96.5526 96.5523 104.135 105.901 106.121 106.137 106.138 76.4571 106.138 106.137 106.136 106.128 105.987 106.111 105.795 104.709 98.5819 103.497 84.5792 94.5449 
        </DataArray>
        <DataArray type="Float32" Name="Pressure_Mixture" format="ascii">
1.14635e+07 1.20014e+07 1.70263e+07 1.64391e+07 2.32103e+07 2.33365e+07 2.03644e+07 2.09954e+07 2.59769e+07 2.60518e+07 1.88706e+07 1.887e+07 3.03739e+07 2.98702e+07 6.91559e+06 7.6127e+06 2.64501e+07 2.61979e+07 2.56921e+07 2.48826e+07 2.40379e+07 2.64164e+07 6.36073e+06 6.24884e+06 2.36994e+07 2.36259e+07 6.27193e+06 6.27174e+06 6.26106e+06 6.26417e+06 6.23676e+06 6.2707e+06 2.30947e+07 2.27911e+07 6.27188e+06 6.27186e+06 6.27186e+06 6.27186e+06 6.27186e+06 4.53351e+06 4.53355e+06 6.2718e+06 6.27067e+06 6.25499e+06 6.12853e+06 5.5896e+06 5.5895e+06 6.12883e+06 6.25495e+06 6.27066e+06 6.2718e+06 6.27186e+06 4.28354e+06 6.27185e+06 6.27183e+06 6.27176e+06 6.27118e+06 6.26105e+06 6.26991e+06 6.24733e+06 6.16975e+06 5.73335e+06 6.08356e+06 4.74444e+06 5.45039e+06 
        </DataArray>
        <DataArray type="Float32" Name="Velocity_Mixture" NumberOfComponents="3" format="ascii">
152.717 -18.1872 0 134.123 38.7876 0 223.363 -33.2269 0 224.107 35.1427 0 322.209 27.7057 0 321.951 -29.6033 0 283.256 -14.9834 0 286.198 25.0174 0 304.786 49.637 0 304.941 -50.3654 0 343.779 0.062536 0 343.782 -0.0596464 0 274.637 -42.6695 0 276.104 45.7669 0 16.9971 1.80002 0 45.46 -14.5819 0 293.412 -70.307 0 297.541 76.5717 0 294.452 -69.9431 0 289.922 43.5406 0 297.618 -36.6176 0 288.601 85.3917 0 0.311017 -1.9293 0 -0.655963 0.289864 0 304.994 -16.5543 0 304.27 16.2102 0 0.00248723 -0.000324149 0 0.0010199 0.00190619 0 -0.351016 -0.0614318 0 -0.149821 0.202414 0 -1.01089 0.998582 0 -0.0296402 0.038219 0 276.112 84.9245 0 279.619 -67.6525 0 0.000401805 0.000156769 0 8.48414e-05 -2.76274e-05 0 0 -3.26165e-05 0 0 -4.87644e-06 0 0 7.05728e-06 0 33.8734 -0.613078 0 33.8776 0.615064 0 0.000329791 -0.00025292 0 0.00858966 -0.00449321 0 0.133202 -0.0470165 0 1.29797 -0.262774 0 8.0479 -0.679701 0 8.04323 0.666757 0 1.32083 0.252782 0 0.139081 0.0451544 0 0.00912564 0.00434516 0 0.000363876 0.000248889 0 0 0 0 71.5002 0.00255463 0 0.000160245 0 0 0.000284078 2.36314e-05 0 0.00599377 -0.000156736 0 0.0088917 0.000815836 0 0.163721 0.0108179 0 0.121679 -0.00296849 0 1.52823 -0.031365 0 1.89286 0.0647522 0 13.3299 0.0522637 0 11.1406 -0.109538 0 54.9367 -0.00214167 0 42.9435 -0.0580023 0 
        </DataArray>
        <DataArray type="Float32" Name="gradRho" format="ascii">
29.6393 28.3709 50.2836 49.3744 30.6236 30.7308 56.4158 60.1987 39.2062 40.7404 48.1586 49.5871 19.6128 17.747 19.9372 20.6151 16.4544 14.1781 53.3241 37.4329 40.3352 51.5491 6.19666 3.07019 9.62621 5.16881 0.0071436 0.038167 0.147507 0.182615 0.393097 0.0641696 52.4798 48.6805 0.000331958 0.000429033 0.000128452 5.35259e-06 4.42752e-06 0.786797 0.786958 9.75286e-05 0.00156192 0.014994 0.0885256 0.29107 0.291074 0.0889213 0.014888 0.00152753 9.48843e-05 2.95049e-06 0.732698 0.000118367 0.000151685 0.00290532 0.00353526 0.0515766 0.0444136 0.390359 0.435407 1.91536 1.78143 3.78018 3.68093 
        </DataArray>
      </CellData>
    </Piece>
  </UnstructuredGrid>
</VTKFile>
