<?xml version="1.0"?>
<VTKFile type="UnstructuredGrid" version="0.1" byte_order="LittleEndian">
  <UnstructuredGrid>
    <Piece NumberOfPoints="50" NumberOfCells="65">
      <Points>
        <DataArray type="Float32" NumberOfComponents="3" format="ascii">
          0 5 0 0 -5 0 15 0.2 0 15 -0.2 0 35 0.2 0 35 -0.2 0 2.14286 4.31429 0 4.28571 3.62857 0 6.42857 2.94286 0 8.57143 2.25714 0 10.7143 1.57143 0 12.8571 0.885714 0 17.8571 0.2 0 20.7143 0.2 0 23.5714 0.2 0 26.4286 0.2 0 29.2857 0.2 0 32.1429 0.2 0 32.1429 -0.2 0 29.2857 -0.2 0 26.4286 -0.2 0 23.5714 -0.2 0 20.7143 -0.2 0 17.8571 -0.2 0 12.8571 -0.885714 0 10.7143 -1.57143 0 8.57143 -2.25714 0 6.42857 -2.94286 0 4.28571 -3.62857 0 2.14286 -4.31429 0 0 -2.5 0 0 -6.16307e-12 0 0 2.5 0 3.95974 -5.7158e-13 0 13.9286 -3.66374e-15 0 6.61813 2.81487e-12 0 2.86365 2.0434 0 2.86365 -2.0434 0 9.43036 1.987e-12 0 11.3926 2.79508e-14 0 4.83116 1.72297 0 4.83116 -1.72297 0 1.90629 -3.21031e-12 0 33.5714 0 0 16.4286 -1.80625e-18 0 25 6.93889e-18 0 19.2857 -6.93889e-18 0 30.7143 0 0 22.1429 0 0 27.8571 0 0 
        </DataArray>
      </Points>
      <Cells>
        <DataArray type="Int32" Name="connectivity" format="ascii">
          8 9 35 26 27 35 8 35 40 27 41 35 30 42 37 32 36 42 33 40 35 33 35 41 29 30 37 6 36 32 30 31 42 31 32 42 0 6 32 30 29 1 26 35 38 9 38 35 6 7 36 28 29 37 7 40 36 33 41 37 33 36 40 28 37 41 9 10 38 25 26 38 33 42 36 33 37 42 11 34 24 24 25 39 10 11 39 25 38 39 10 39 38 11 24 39 27 28 41 7 8 40 2 34 11 3 24 34 2 3 34 2 44 12 3 23 44 4 17 43 5 43 18 12 46 13 13 48 14 14 45 15 15 49 16 16 47 17 18 47 19 19 49 20 20 45 21 21 48 22 22 46 23 2 3 44 4 43 5 12 44 23 12 23 46 13 46 22 13 22 48 14 21 45 14 48 21 15 45 20 15 20 49 16 19 47 16 49 19 17 18 43 17 47 18 
        </DataArray>
        <DataArray type="Int32" Name="offsets" format="ascii">
          3 6 9 12 15 18 21 24 27 30 33 36 39 42 45 48 51 54 57 60 63 66 69 72 75 78 81 84 87 90 93 96 99 102 105 108 111 114 117 120 123 126 129 132 135 138 141 144 147 150 153 156 159 162 165 168 171 174 177 180 183 186 189 192 195 
        </DataArray>
        <DataArray type="UInt8" Name="types" format="ascii">
          5 5 5 5 5 5 5 5 5 5 5 5 5 5 5 5 5 5 5 5 5 5 5 5 5 5 5 5 5 5 5 5 5 5 5 5 5 5 5 5 5 5 5 5 5 5 5 5 5 5 5 5 5 5 5 5 5 5 5 5 5 5 5 5 5 
        </DataArray>
      </Cells>
      <CellData>
        <DataArray type="Float32" Name="F0_Alpha_SG_co2liq_mod.xml" format="ascii">
1.68285e-10 1.67653e-10 1.64382e-10 1.64803e-10 1.64995e-10 1.64905e-10 1.63824e-10 1.63488e-10 1.63234e-10 1.63201e-10 1.67783e-10 1.67783e-10 1.60563e-10 1.60863e-10 1.719e-10 1.71445e-10 1.62237e-10 1.62508e-10 1.6173e-10 1.62399e-10 1.63016e-10 1.61225e-10 1.72589e-10 1.72711e-10 1.63778e-10 1.63784e-10 1.72682e-10 1.72682e-10 1.72688e-10 1.72689e-10 1.7269e-10 1.72683e-10 1.61796e-10 1.61789e-10 1.72682e-10 1.72682e-10 1.72682e-10 1.72682e-10 1.72682e-10 1.73385e-10 1.73385e-10 1.72682e-10 1.72683e-10 1.72693e-10 1.72762e-10 1.7301e-10 1.7301e-10 1.72762e-10 1.72693e-10 1.72683e-10 1.72682e-10 1.72682e-10 1.73412e-10 1.72682e-10 1.72682e-10 1.72682e-10 1.72682e-10 1.72689e-10 1.72683e-10 1.72697e-10 1.7274e-10 1.72948e-10 1.72785e-10 1.73321e-10 1.73067e-10 
        </DataArray>
        <DataArray type="Float32" Name="F0_Density_SG_co2liq_mod.xml" format="ascii">
6146.45 6180.38 6366.21 6344.65 6523.6 6528.84 6464.52 6485.72 6643.55 6645.56 6347.82 6347.8 6833.01 6812.34 5944.22 5970.63 6666.34 6651.51 6647.31 6618.09 6583.68 6675.54 5903.02 5895.3 6562.96 6562.24 5897.13 5897.11 5896.73 5896.68 5896.63 5897.06 6562.18 6559.85 5897.13 5897.13 5897.13 5897.13 5897.13 5848.36 5848.36 5897.13 5897.08 5896.45 5892.02 5875.59 5875.58 5892.03 5896.45 5897.08 5897.13 5897.13 5842.49 5897.13 5897.13 5897.13 5897.1 5896.68 5897.04 5896.17 5893.42 5879.79 5890.52 5853.42 5871.61 
        </DataArray>
        <DataArray type="Float32" Name="F0_Temperature_SG_co2liq_mod.xml" format="ascii">
42.2041 42.2355 42.3617 42.3502 42.4295 42.4313 42.4071 42.4155 42.466 42.4665 42.3519 42.3519 42.5052 42.5018 41.9062 41.9621 42.4718 42.468 42.4669 42.4591 42.4491 42.474 41.7988 41.7749 42.4427 42.4424 41.7807 41.7806 41.7794 41.7792 41.7791 41.7804 42.4424 42.4417 41.7807 41.7807 41.7807 41.7807 41.7807 41.5846 41.5846 41.7807 41.7805 41.7785 41.7643 41.7062 41.7062 41.7643 41.7785 41.7805 41.7807 41.7807 41.5522 41.7807 41.7807 41.7807 41.7806 41.7793 41.7804 41.7776 41.7688 41.7219 41.7593 41.6105 41.6907 
        </DataArray>
        <DataArray type="Float32" Name="F0_Mass fraction_SG_co2liq_mod.xml" format="ascii">
5.06695e-09 4.80464e-09 3.70029e-09 3.77744e-09 2.32565e-09 2.31663e-09 2.93854e-09 2.87302e-09 2.09601e-09 2.09318e-09 2.74682e-09 2.74689e-09 1.81368e-09 1.83906e-09 8.05351e-09 7.42624e-09 2.15225e-09 2.17064e-09 2.31615e-09 2.33436e-09 2.38859e-09 2.2752e-09 9.35518e-09 9.67212e-09 2.35123e-09 2.35378e-09 9.59425e-09 9.59512e-09 9.61121e-09 9.61346e-09 9.61561e-09 9.59754e-09 2.7826e-09 2.80065e-09 9.59434e-09 9.59439e-09 9.5944e-09 9.5944e-09 9.5944e-09 1.25431e-08 1.2543e-08 9.59452e-09 9.59668e-09 9.62305e-09 9.816e-09 1.06346e-08 1.06347e-08 9.81547e-09 9.6231e-09 9.5967e-09 9.59452e-09 9.5944e-09 1.33509e-08 9.59441e-09 9.59446e-09 9.59461e-09 9.59575e-09 9.61322e-09 9.59802e-09 9.63506e-09 9.75385e-09 1.04075e-08 9.88411e-09 1.21099e-08 1.08675e-08 
        </DataArray>
        <DataArray type="Float32" Name="F1_Alpha_SG_co2gas_mod.xml" format="ascii">
1 1 1 1 1 1 1 1 1 1 1 1 1 1 1 1 1 1 1 1 1 1 1 1 1 1 1 1 1 1 1 1 1 1 1 1 1 1 1 1 1 1 1 1 1 1 1 1 1 1 1 1 1 1 1 1 1 1 1 1 1 1 1 1 1 
        </DataArray>
        <DataArray type="Float32" Name="F1_Density_SG_co2gas_mod.xml" format="ascii">
204.137 215.657 282.813 276.806 462.824 464.744 360.398 369.067 517.391 518.14 387.741 387.731 604.917 595.876 126.878 137.84 502.509 497.976 464.163 460.414 449.323 473.042 108.902 105.27 457.153 456.621 106.139 106.13 105.949 105.924 105.899 106.102 381.563 378.951 106.138 106.138 106.138 106.138 106.138 80.8428 80.8432 106.136 106.112 105.816 103.7 95.5874 95.5866 103.705 105.816 106.112 106.136 106.138 75.887 106.138 106.137 106.135 106.123 105.926 106.097 105.682 104.372 97.7079 102.973 83.7762 93.5062 
        </DataArray>
        <DataArray type="Float32" Name="F1_Temperature_SG_co2gas_mod.xml" format="ascii">
490.021 493.099 494.744 491.65 361.936 362.395 436.248 436.027 363.759 363.896 352.437 352.436 364.462 364.121 473.161 476.082 382.303 380.681 406.862 399.275 395.944 409.448 467.119 466.159 381.337 381.509 466.386 466.383 466.336 466.329 466.324 466.376 456.529 458.61 466.386 466.385 466.385 466.385 466.385 459.45 459.45 466.385 466.379 466.301 465.74 463.554 463.548 465.741 466.3 466.379 466.385 466.385 467.271 466.385 466.385 466.385 466.381 466.33 466.375 466.266 465.918 464.114 465.568 460.129 463.216 
        </DataArray>
        <DataArray type="Float32" Name="F1_Mass fraction_SG_co2gas_mod.xml" format="ascii">
1 1 1 1 1 1 1 1 1 1 1 1 1 1 1 1 1 1 1 1 1 1 1 1 1 1 1 1 1 1 1 1 1 1 1 1 1 1 1 1 1 1 1 1 1 1 1 1 1 1 1 1 1 1 1 1 1 1 1 1 1 1 1 1 1 
        </DataArray>
        <DataArray type="Float32" Name="Density_Mixture" format="ascii">
204.137 215.657 282.813 276.806 462.824 464.744 360.398 369.067 517.391 518.14 387.741 387.731 604.917 595.876 126.878 137.84 502.509 497.976 464.163 460.414 449.323 473.042 108.902 105.27 457.153 456.621 106.139 106.13 105.949 105.924 105.899 106.102 381.563 378.951 106.138 106.138 106.138 106.138 106.138 80.8428 80.8432 106.136 106.112 105.816 103.7 95.5874 95.5866 103.705 105.816 106.112 106.136 106.138 75.887 106.138 106.137 106.135 106.123 105.926 106.097 105.682 104.372 97.7079 102.973 83.7762 93.5062 
        </DataArray>
        <DataArray type="Float32" Name="Pressure_Mixture" format="ascii">
1.35786e+07 1.44908e+07 1.93465e+07 1.87928e+07 2.33363e+07 2.34677e+07 2.18484e+07 2.23835e+07 2.63285e+07 2.63782e+07 1.88742e+07 1.88737e+07 3.09939e+07 3.0488e+07 7.79484e+06 8.60309e+06 2.68932e+07 2.65258e+07 2.64217e+07 2.56961e+07 2.48393e+07 2.7121e+07 6.46982e+06 6.20988e+06 2.4322e+07 2.4304e+07 6.27198e+06 6.27128e+06 6.25836e+06 6.25655e+06 6.25485e+06 6.26933e+06 2.43025e+07 2.42442e+07 6.27191e+06 6.27187e+06 6.27186e+06 6.27185e+06 6.27185e+06 4.48491e+06 4.48494e+06 6.27176e+06 6.27002e+06 6.24887e+06 6.09776e+06 5.52121e+06 5.52108e+06 6.09816e+06 6.24883e+06 6.27001e+06 6.27176e+06 6.27186e+06 4.24149e+06 6.27185e+06 6.27181e+06 6.27169e+06 6.27077e+06 6.25674e+06 6.26894e+06 6.23928e+06 6.14572e+06 5.67126e+06 6.04623e+06 4.68802e+06 5.37714e+06 
        </DataArray>
        <DataArray type="Float32" Name="Velocity_Mixture" NumberOfComponents="3" format="ascii">
191.713 -27.3842 0 177.342 51.9704 0 248.946 -39.8005 0 252.693 43.3491 0 320.904 30.292 0 320.615 -31.9429 0 292.223 -16.5747 0 293.699 27.3374 0 302.932 51.3749 0 303.101 -52.0334 0 343.794 0.0565056 0 343.798 -0.0535656 0 270.929 -42.8586 0 272.3 46.1767 0 40.0627 9.4333 0 75.0192 -21.1544 0 292.864 -71.8213 0 297.095 76.7894 0 295.404 -72.8175 0 290.458 46.21 0 298.804 -40.1836 0 289.827 86.3093 0 4.91007 -0.961918 0 -1.79681 0.55843 0 306.002 -17.5719 0 305.319 16.7545 0 0.00422351 -0.000903178 0 -0.00454497 0.00801606 0 -0.433653 -0.0236284 0 -0.40602 0.129348 0 -0.475526 0.601825 0 -0.0672638 0.0839464 0 285.823 87.4833 0 287.432 -73.2525 0 0.00106933 0.000280294 0 0.000271582 -6.49573e-05 0 6.92618e-06 -0.000171491 0 0 -1.62957e-05 0 0 1.75684e-05 0 36.7669 -0.573981 0 36.7713 0.57573 0 0.000624649 -0.000418227 0 0.0136197 -0.00644435 0 0.18628 -0.0590145 0 1.63888 -0.291244 0 9.31203 -0.676404 0 9.30223 0.664375 0 1.65751 0.281419 0 0.193767 0.0566239 0 0.0143964 0.00622081 0 0.00067893 0.000409137 0 0 0 0 73.1853 0.00226322 0 0.000353976 0 0 0.000576007 5.75035e-05 0 0.0103164 -0.000267122 0 0.0148319 0.00124287 0 0.239605 0.0142361 0 0.182406 -0.00426248 0 2.01529 -0.0395886 0 2.45878 0.0631038 0 15.6149 0.0417427 0 13.1025 -0.085328 0 58.5926 -0.00190165 0 45.7276 -0.0459186 0 
        </DataArray>
        <DataArray type="Float32" Name="gradRho" format="ascii">
33.7771 32.8176 51.2914 48.3889 33.4594 33.4568 51.5776 54.941 40.2219 41.3937 52.1468 53.4858 20.4872 18.5297 29.6175 28.6756 13.2532 11.5018 46.8562 32.2644 34.7981 45.5172 10.4745 7.17305 5.12531 1.03814 0.015633 0.0743654 0.0529183 0.295989 1.01689 0.079406 48.2572 44.6876 0.000483386 0.000697242 0.000313629 8.53949e-06 6.9725e-06 0.771047 0.771186 0.000156534 0.00218527 0.0186912 0.101858 0.303057 0.303072 0.102305 0.0185954 0.00214576 0.000151372 1.22708e-05 0.714522 0.000217489 0.000273631 0.00459635 0.00551837 0.0703567 0.0611854 0.471319 0.5228 2.04648 1.91278 3.68743 3.6055 
        </DataArray>
      </CellData>
    </Piece>
  </UnstructuredGrid>
</VTKFile>
