<?xml version="1.0"?>
<VTKFile type="UnstructuredGrid" version="0.1" byte_order="LittleEndian">
  <UnstructuredGrid>
    <Piece NumberOfPoints="50" NumberOfCells="65">
      <Points>
        <DataArray type="Float32" NumberOfComponents="3" format="ascii">
          0 5 0 0 -5 0 15 0.2 0 15 -0.2 0 35 0.2 0 35 -0.2 0 2.14286 4.31429 0 4.28571 3.62857 0 6.42857 2.94286 0 8.57143 2.25714 0 10.7143 1.57143 0 12.8571 0.885714 0 17.8571 0.2 0 20.7143 0.2 0 23.5714 0.2 0 26.4286 0.2 0 29.2857 0.2 0 32.1429 0.2 0 32.1429 -0.2 0 29.2857 -0.2 0 26.4286 -0.2 0 23.5714 -0.2 0 20.7143 -0.2 0 17.8571 -0.2 0 12.8571 -0.885714 0 10.7143 -1.57143 0 8.57143 -2.25714 0 6.42857 -2.94286 0 4.28571 -3.62857 0 2.14286 -4.31429 0 0 -2.5 0 0 -6.16307e-12 0 0 2.5 0 3.95974 -5.7158e-13 0 13.9286 -3.66374e-15 0 6.61813 2.81487e-12 0 2.86365 2.0434 0 2.86365 -2.0434 0 9.43036 1.987e-12 0 11.3926 2.79508e-14 0 4.83116 1.72297 0 4.83116 -1.72297 0 1.90629 -3.21031e-12 0 33.5714 0 0 16.4286 -1.80625e-18 0 25 6.93889e-18 0 19.2857 -6.93889e-18 0 30.7143 0 0 22.1429 0 0 27.8571 0 0 
        </DataArray>
      </Points>
      <Cells>
        <DataArray type="Int32" Name="connectivity" format="ascii">
          8 9 35 26 27 35 8 35 40 27 41 35 30 42 37 32 36 42 33 40 35 33 35 41 29 30 37 6 36 32 30 31 42 31 32 42 0 6 32 30 29 1 26 35 38 9 38 35 6 7 36 28 29 37 7 40 36 33 41 37 33 36 40 28 37 41 9 10 38 25 26 38 33 42 36 33 37 42 11 34 24 24 25 39 10 11 39 25 38 39 10 39 38 11 24 39 27 28 41 7 8 40 2 34 11 3 24 34 2 3 34 2 44 12 3 23 44 4 17 43 5 43 18 12 46 13 13 48 14 14 45 15 15 49 16 16 47 17 18 47 19 19 49 20 20 45 21 21 48 22 22 46 23 2 3 44 4 43 5 12 44 23 12 23 46 13 46 22 13 22 48 14 21 45 14 48 21 15 45 20 15 20 49 16 19 47 16 49 19 17 18 43 17 47 18 
        </DataArray>
        <DataArray type="Int32" Name="offsets" format="ascii">
          3 6 9 12 15 18 21 24 27 30 33 36 39 42 45 48 51 54 57 60 63 66 69 72 75 78 81 84 87 90 93 96 99 102 105 108 111 114 117 120 123 126 129 132 135 138 141 144 147 150 153 156 159 162 165 168 171 174 177 180 183 186 189 192 195 
        </DataArray>
        <DataArray type="UInt8" Name="types" format="ascii">
          5 5 5 5 5 5 5 5 5 5 5 5 5 5 5 5 5 5 5 5 5 5 5 5 5 5 5 5 5 5 5 5 5 5 5 5 5 5 5 5 5 5 5 5 5 5 5 5 5 5 5 5 5 5 5 5 5 5 5 5 5 5 5 5 5 
        </DataArray>
      </Cells>
      <CellData>
        <DataArray type="Float32" Name="F0_Alpha_SG_co2liq_mod.xml" format="ascii">
1.72682e-10 1.72682e-10 1.72683e-10 1.72683e-10 1.66707e-10 1.66785e-10 1.72663e-10 1.72662e-10 1.67383e-10 1.67164e-10 1.67842e-10 1.67841e-10 1.65689e-10 1.65895e-10 1.72682e-10 1.72682e-10 1.70814e-10 1.69998e-10 1.72324e-10 1.72066e-10 1.72021e-10 1.72621e-10 1.72682e-10 1.72682e-10 1.70439e-10 1.70429e-10 1.72682e-10 1.72682e-10 1.72682e-10 1.72682e-10 1.72682e-10 1.72682e-10 1.72693e-10 1.72679e-10 1.72682e-10 1.72682e-10 1.72682e-10 1.72682e-10 1.72682e-10 1.73042e-10 1.73042e-10 1.72682e-10 1.72682e-10 1.72682e-10 1.72683e-10 1.72711e-10 1.72711e-10 1.72683e-10 1.72682e-10 1.72682e-10 1.72682e-10 1.72682e-10 1.73119e-10 1.72682e-10 1.72682e-10 1.72682e-10 1.72682e-10 1.72682e-10 1.72682e-10 1.72682e-10 1.72682e-10 1.72697e-10 1.72684e-10 1.72947e-10 1.72731e-10 
        </DataArray>
        <DataArray type="Float32" Name="F0_Density_SG_co2liq_mod.xml" format="ascii">
5897.13 5897.13 5897.08 5897.08 6319.93 6315.48 5898.35 5898.43 6265.24 6276.26 6314.77 6314.79 6445.35 6432.01 5897.13 5897.13 6010.66 6058.42 5919.35 5934.65 5937.35 5900.82 5897.13 5897.13 6028.39 6029.03 5897.13 5897.13 5897.13 5897.13 5897.13 5897.13 5896.43 5897.33 5897.13 5897.13 5897.13 5897.13 5897.13 5873.4 5873.4 5897.13 5897.13 5897.13 5897.08 5895.28 5895.27 5897.08 5897.13 5897.13 5897.13 5897.13 5865.11 5897.13 5897.13 5897.13 5897.13 5897.13 5897.13 5897.13 5897.11 5896.15 5897.02 5879.87 5893.99 
        </DataArray>
        <DataArray type="Float32" Name="F0_Temperature_SG_co2liq_mod.xml" format="ascii">
41.7807 41.7807 41.7805 41.7805 42.3361 42.3334 41.7845 41.7847 42.3013 42.3087 42.333 42.333 42.3991 42.3934 41.7807 41.7807 42.0336 42.1038 41.8449 41.8838 41.8902 41.7921 41.7807 41.7807 42.0613 42.0623 41.7807 41.7807 41.7807 41.7807 41.7807 41.7807 41.7785 41.7813 41.7807 41.7807 41.7807 41.7807 41.7807 41.6978 41.6978 41.7807 41.7807 41.7807 41.7805 41.7748 41.7748 41.7805 41.7807 41.7807 41.7807 41.7807 41.664 41.7807 41.7807 41.7807 41.7807 41.7807 41.7807 41.7807 41.7806 41.7776 41.7803 41.7222 41.7707 
        </DataArray>
        <DataArray type="Float32" Name="F0_Mass fraction_SG_co2liq_mod.xml" format="ascii">
9.59451e-09 9.59438e-09 9.59644e-09 9.59668e-09 3.2782e-09 3.29431e-09 9.54357e-09 9.54036e-09 3.60468e-09 3.56734e-09 2.9707e-09 2.97061e-09 2.60495e-09 2.64061e-09 9.5944e-09 9.59441e-09 6.56677e-09 5.85133e-09 8.76935e-09 8.30752e-09 8.23004e-09 9.45083e-09 9.5944e-09 9.5944e-09 6.37426e-09 6.36245e-09 9.5944e-09 9.5944e-09 9.5944e-09 9.5944e-09 9.5944e-09 9.5944e-09 9.62396e-09 9.58619e-09 9.5944e-09 9.5944e-09 9.5944e-09 9.5944e-09 9.5944e-09 1.07594e-08 1.07593e-08 9.5944e-09 9.5944e-09 9.59442e-09 9.59633e-09 9.67305e-09 9.67345e-09 9.59639e-09 9.59442e-09 9.5944e-09 9.5944e-09 9.5944e-09 1.14431e-08 9.5944e-09 9.5944e-09 9.5944e-09 9.5944e-09 9.59441e-09 9.5944e-09 9.59446e-09 9.59514e-09 9.636e-09 9.59885e-09 1.04037e-08 9.72936e-09 
        </DataArray>
        <DataArray type="Float32" Name="F1_Alpha_SG_co2gas_mod.xml" format="ascii">
1 1 1 1 1 1 1 1 1 1 1 1 1 1 1 1 1 1 1 1 1 1 1 1 1 1 1 1 1 1 1 1 1 1 1 1 1 1 1 1 1 1 1 1 1 1 1 1 1 1 1 1 1 1 1 1 1 1 1 1 1 1 1 1 1 
        </DataArray>
        <DataArray type="Float32" Name="F1_Density_SG_co2gas_mod.xml" format="ascii">
106.137 106.138 106.115 106.112 321.389 319.742 106.713 106.75 290.926 294.102 356.779 356.79 409.96 404.087 106.138 106.138 156.349 176.015 116.319 122.919 124.1 107.779 106.138 106.138 161.191 161.498 106.138 106.138 106.138 106.138 106.138 106.138 105.806 106.23 106.138 106.138 106.138 106.138 106.138 94.4613 94.4618 106.138 106.138 106.138 106.116 105.259 105.255 106.115 106.138 106.138 106.138 106.138 88.7316 106.138 106.138 106.138 106.138 106.138 106.138 106.137 106.129 105.671 106.088 97.7446 104.639 
        </DataArray>
        <DataArray type="Float32" Name="F1_Temperature_SG_co2gas_mod.xml" format="ascii">
466.385 466.385 466.379 466.379 409.727 409.347 466.542 466.553 418.838 421.079 366.497 366.499 375.325 374.988 466.385 466.385 472.089 472.989 469.23 471.535 471.774 467.255 466.385 466.385 479.869 479.745 466.385 466.385 466.385 466.385 466.385 466.385 466.298 466.41 466.385 466.385 466.385 466.385 466.385 463.288 463.288 466.385 466.385 466.385 466.38 466.154 466.153 466.379 466.385 466.385 466.385 466.385 469.437 466.385 466.385 466.385 466.385 466.385 466.385 466.385 466.383 466.262 466.372 464.134 466.007 
        </DataArray>
        <DataArray type="Float32" Name="F1_Mass fraction_SG_co2gas_mod.xml" format="ascii">
1 1 1 1 1 1 1 1 1 1 1 1 1 1 1 1 1 1 1 1 1 1 1 1 1 1 1 1 1 1 1 1 1 1 1 1 1 1 1 1 1 1 1 1 1 1 1 1 1 1 1 1 1 1 1 1 1 1 1 1 1 1 1 1 1 
        </DataArray>
        <DataArray type="Float32" Name="Density_Mixture" format="ascii">
106.137 106.138 106.115 106.112 321.389 319.742 106.713 106.75 290.926 294.102 356.779 356.79 409.96 404.087 106.138 106.138 156.349 176.015 116.319 122.919 124.1 107.779 106.138 106.138 161.191 161.498 106.138 106.138 106.138 106.138 106.138 106.138 105.806 106.23 106.138 106.138 106.138 106.138 106.138 94.4613 94.4618 106.138 106.138 106.138 106.116 105.259 105.255 106.115 106.138 106.138 106.138 106.138 88.7316 106.138 106.138 106.138 106.138 106.138 106.138 106.137 106.129 105.671 106.088 97.7446 104.639 
        </DataArray>
        <DataArray type="Float32" Name="Pressure_Mixture" format="ascii">
6.27177e+06 6.27188e+06 6.27021e+06 6.27002e+06 1.81552e+07 1.804e+07 6.31309e+06 6.31571e+06 1.67336e+07 1.70213e+07 1.80217e+07 1.80224e+07 2.13633e+07 2.10249e+07 6.27186e+06 6.27185e+06 9.787e+06 1.11524e+07 7.00635e+06 7.49508e+06 7.57992e+06 6.39612e+06 6.27186e+06 6.27186e+06 1.02989e+07 1.03173e+07 6.27186e+06 6.27186e+06 6.27186e+06 6.27186e+06 6.27186e+06 6.27186e+06 6.24814e+06 6.27848e+06 6.27186e+06 6.27186e+06 6.27186e+06 6.27186e+06 6.27186e+06 5.44209e+06 5.44213e+06 6.27186e+06 6.27186e+06 6.27184e+06 6.27031e+06 6.2091e+06 6.20878e+06 6.27026e+06 6.27184e+06 6.27186e+06 6.27186e+06 6.27186e+06 5.13715e+06 6.27186e+06 6.27186e+06 6.27186e+06 6.27186e+06 6.27185e+06 6.27186e+06 6.27181e+06 6.27127e+06 6.23852e+06 6.26828e+06 5.67401e+06 6.16509e+06 
        </DataArray>
        <DataArray type="Float32" Name="Velocity_Mixture" NumberOfComponents="3" format="ascii">
-0.00331053 0.000152104 0 0.000439629 0.000277229 0 -0.0307966 0.0775279 0 -0.0357308 -0.0760588 0 273.819 -6.14408 0 274.781 8.09808 0 1.36349 -0.462706 0 1.45882 0.497832 0 262.976 45.9811 0 259.684 -38.7926 0 334.164 0.357841 0 334.158 -0.360542 0 305.782 -39.2407 0 302.476 51.9637 0 0.00016848 0.000166303 0 -0.000376491 0.000283177 0 114.796 -8.9617 0 111.504 40.6484 0 24.8409 -6.13977 0 43.5993 -9.93523 0 43.021 8.82288 0 2.42361 -7.70634 0 0 0 0 0 0 0 127.31 -20.0619 0 128.29 21.6623 0 0 0 0 0 0 0 0 0 0 0 0 0 0 0 0 0 0 0 -0.449594 -0.269923 0 -0.160285 -0.21088 0 0 0 0 0 0 0 0 0 0 0 0 0 0 0 0 8.10211 -1.32635 0 8.10181 1.32678 0 0 0 0 0 0 0 6.71454e-05 -0.000146498 0 0.00928014 -0.0109797 0 0.423884 -0.26538 0 0.458922 0.253871 0 0.0104098 0.0108388 0 8.27077e-05 0.00014989 0 0 0 0 0 0 0 0 0 0 42.9536 0.000413463 0 0 0 0 0 0 0 0 0 0 0 0 0 2.21069e-05 0 0 0 0 0 0.00245111 -9.04666e-05 0 0.00560223 0.000987328 0 0.368362 0.0534858 0 0.211738 -0.00706873 0 9.59837 -0.0018333 0 6.85188 -0.198394 0 
        </DataArray>
        <DataArray type="Float32" Name="gradRho" format="ascii">
0.00644785 0.00744707 0.145909 0.24131 61.9064 61.8777 6.80534 6.34751 64.3237 73.4828 24.5802 25.7296 27.3528 26.7161 0.000119206 0.000384825 53.1972 51.3784 14.764 19.9128 18.6802 18.9524 5.59654e-05 1.99478e-05 65.883 66.842 0 4.72855e-08 1.9065e-07 2.20756e-07 3.04709e-06 1.07532e-09 0.658823 3.54443 0 0 0 0 0 0.90489 0.905087 2.23544e-09 5.78683e-07 8.19535e-05 0.00490083 0.0916685 0.0903417 0.00461294 7.46248e-05 4.97325e-07 1.8786e-09 0 0.826117 0 3.82347e-10 6.1682e-08 1.33039e-07 3.52308e-05 1.92356e-05 0.00271939 0.00401871 0.185538 0.14841 2.72873 2.47255 
        </DataArray>
      </CellData>
    </Piece>
  </UnstructuredGrid>
</VTKFile>
