<?xml version="1.0"?>
<VTKFile type="UnstructuredGrid" version="0.1" byte_order="LittleEndian">
  <UnstructuredGrid>
    <Piece NumberOfPoints="50" NumberOfCells="65">
      <Points>
        <DataArray type="Float32" NumberOfComponents="3" format="ascii">
          0 5 0 0 -5 0 15 0.2 0 15 -0.2 0 35 0.2 0 35 -0.2 0 2.14286 4.31429 0 4.28571 3.62857 0 6.42857 2.94286 0 8.57143 2.25714 0 10.7143 1.57143 0 12.8571 0.885714 0 17.8571 0.2 0 20.7143 0.2 0 23.5714 0.2 0 26.4286 0.2 0 29.2857 0.2 0 32.1429 0.2 0 32.1429 -0.2 0 29.2857 -0.2 0 26.4286 -0.2 0 23.5714 -0.2 0 20.7143 -0.2 0 17.8571 -0.2 0 12.8571 -0.885714 0 10.7143 -1.57143 0 8.57143 -2.25714 0 6.42857 -2.94286 0 4.28571 -3.62857 0 2.14286 -4.31429 0 0 -2.5 0 0 -6.16307e-12 0 0 2.5 0 3.95974 -5.7158e-13 0 13.9286 -3.66374e-15 0 6.61813 2.81487e-12 0 2.86365 2.0434 0 2.86365 -2.0434 0 9.43036 1.987e-12 0 11.3926 2.79508e-14 0 4.83116 1.72297 0 4.83116 -1.72297 0 1.90629 -3.21031e-12 0 33.5714 0 0 16.4286 -1.80625e-18 0 25 6.93889e-18 0 19.2857 -6.93889e-18 0 30.7143 0 0 22.1429 0 0 27.8571 0 0 
        </DataArray>
      </Points>
      <Cells>
        <DataArray type="Int32" Name="connectivity" format="ascii">
          8 9 35 26 27 35 8 35 40 27 41 35 30 42 37 32 36 42 33 40 35 33 35 41 29 30 37 6 36 32 30 31 42 31 32 42 0 6 32 30 29 1 26 35 38 9 38 35 6 7 36 28 29 37 7 40 36 33 41 37 33 36 40 28 37 41 9 10 38 25 26 38 33 42 36 33 37 42 11 34 24 24 25 39 10 11 39 25 38 39 10 39 38 11 24 39 27 28 41 7 8 40 2 34 11 3 24 34 2 3 34 2 44 12 3 23 44 4 17 43 5 43 18 12 46 13 13 48 14 14 45 15 15 49 16 16 47 17 18 47 19 19 49 20 20 45 21 21 48 22 22 46 23 2 3 44 4 43 5 12 44 23 12 23 46 13 46 22 13 22 48 14 21 45 14 48 21 15 45 20 15 20 49 16 19 47 16 49 19 17 18 43 17 47 18 
        </DataArray>
        <DataArray type="Int32" Name="offsets" format="ascii">
          3 6 9 12 15 18 21 24 27 30 33 36 39 42 45 48 51 54 57 60 63 66 69 72 75 78 81 84 87 90 93 96 99 102 105 108 111 114 117 120 123 126 129 132 135 138 141 144 147 150 153 156 159 162 165 168 171 174 177 180 183 186 189 192 195 
        </DataArray>
        <DataArray type="UInt8" Name="types" format="ascii">
          5 5 5 5 5 5 5 5 5 5 5 5 5 5 5 5 5 5 5 5 5 5 5 5 5 5 5 5 5 5 5 5 5 5 5 5 5 5 5 5 5 5 5 5 5 5 5 5 5 5 5 5 5 5 5 5 5 5 5 5 5 5 5 5 5 
        </DataArray>
      </Cells>
      <CellData>
        <DataArray type="Float32" Name="F0_Alpha_SG_co2liq_mod.xml" format="ascii">
1.72682e-10 1.72682e-10 1.72683e-10 1.72682e-10 1.67425e-10 1.67472e-10 1.7268e-10 1.7268e-10 1.68289e-10 1.68182e-10 1.6796e-10 1.6796e-10 1.66271e-10 1.66432e-10 1.72682e-10 1.72682e-10 1.71634e-10 1.71139e-10 1.72534e-10 1.7241e-10 1.72395e-10 1.72713e-10 1.72682e-10 1.72682e-10 1.71428e-10 1.71416e-10 1.72682e-10 1.72682e-10 1.72682e-10 1.72682e-10 1.72682e-10 1.72682e-10 1.72694e-10 1.72682e-10 1.72682e-10 1.72682e-10 1.72682e-10 1.72682e-10 1.72682e-10 1.72995e-10 1.72995e-10 1.72682e-10 1.72682e-10 1.72682e-10 1.72682e-10 1.727e-10 1.727e-10 1.72682e-10 1.72682e-10 1.72682e-10 1.72682e-10 1.72682e-10 1.73081e-10 1.72682e-10 1.72682e-10 1.72682e-10 1.72682e-10 1.72682e-10 1.72682e-10 1.72682e-10 1.72682e-10 1.72691e-10 1.72683e-10 1.729e-10 1.72716e-10 
        </DataArray>
        <DataArray type="Float32" Name="F0_Density_SG_co2liq_mod.xml" format="ascii">
5897.13 5897.13 5897.09 5897.12 6258.96 6256.28 5897.24 5897.26 6198.04 6202.7 6299.1 6299.13 6398.79 6388.32 5897.13 5897.13 5961 5990.48 5906.4 5913.99 5914.95 5895.15 5897.13 5897.13 5972.01 5972.7 5897.13 5897.13 5897.13 5897.13 5897.13 5897.13 5896.36 5897.13 5897.13 5897.13 5897.13 5897.13 5897.13 5876.61 5876.61 5897.13 5897.13 5897.13 5897.11 5895.97 5895.96 5897.11 5897.13 5897.13 5897.13 5897.13 5867.99 5897.13 5897.13 5897.13 5897.13 5897.13 5897.13 5897.13 5897.12 5896.58 5897.08 5882.99 5894.96 
        </DataArray>
        <DataArray type="Float32" Name="F0_Temperature_SG_co2liq_mod.xml" format="ascii">
41.7807 41.7807 41.7806 41.7806 42.297 42.2951 41.781 41.7811 42.2506 42.2545 42.3234 42.3234 42.3781 42.373 41.7807 41.7807 41.9427 41.9993 41.8088 41.8304 41.833 41.7744 41.7807 41.7807 41.9648 41.9661 41.7807 41.7807 41.7807 41.7807 41.7807 41.7807 41.7782 41.7807 41.7807 41.7807 41.7807 41.7807 41.7807 41.7101 41.7101 41.7807 41.7807 41.7807 41.7806 41.777 41.777 41.7806 41.7807 41.7807 41.7807 41.7807 41.6761 41.7807 41.7807 41.7807 41.7807 41.7807 41.7807 41.7807 41.7807 41.7789 41.7805 41.7335 41.7738 
        </DataArray>
        <DataArray type="Float32" Name="F0_Mass fraction_SG_co2liq_mod.xml" format="ascii">
9.59449e-09 9.59436e-09 9.59602e-09 9.59475e-09 3.66243e-09 3.67474e-09 9.5899e-09 9.58876e-09 4.07659e-09 4.06288e-09 3.06391e-09 3.06382e-09 2.76703e-09 2.79901e-09 9.5944e-09 9.59441e-09 7.59759e-09 6.96193e-09 9.22625e-09 8.95396e-09 8.92034e-09 9.67909e-09 9.5944e-09 9.5944e-09 7.38371e-09 7.36881e-09 9.5944e-09 9.5944e-09 9.5944e-09 9.5944e-09 9.5944e-09 9.5944e-09 9.62692e-09 9.59437e-09 9.5944e-09 9.5944e-09 9.5944e-09 9.5944e-09 9.5944e-09 1.05792e-08 1.05792e-08 9.5944e-09 9.5944e-09 9.5944e-09 9.59519e-09 9.64344e-09 9.64398e-09 9.59523e-09 9.59441e-09 9.5944e-09 9.5944e-09 9.5944e-09 1.12415e-08 9.5944e-09 9.5944e-09 9.5944e-09 9.5944e-09 9.5944e-09 9.5944e-09 9.59442e-09 9.59466e-09 9.61754e-09 9.5965e-09 1.02433e-08 9.68715e-09 
        </DataArray>
        <DataArray type="Float32" Name="F1_Alpha_SG_co2gas_mod.xml" format="ascii">
1 1 1 1 1 1 1 1 1 1 1 1 1 1 1 1 1 1 1 1 1 1 1 1 1 1 1 1 1 1 1 1 1 1 1 1 1 1 1 1 1 1 1 1 1 1 1 1 1 1 1 1 1 1 1 1 1 1 1 1 1 1 1 1 1 
        </DataArray>
        <DataArray type="Float32" Name="F1_Density_SG_co2gas_mod.xml" format="ascii">
106.137 106.138 106.119 106.134 286.123 285.122 106.188 106.201 255.866 256.759 345.31 345.321 384.503 379.856 106.138 106.138 134.663 147.258 110.452 113.875 114.313 105.193 106.138 106.138 138.652 138.939 106.138 106.138 106.138 106.138 106.138 106.138 105.773 106.138 106.138 106.138 106.138 106.138 106.138 96.0963 96.0963 106.138 106.138 106.138 106.129 105.588 105.582 106.128 106.138 106.138 106.138 106.138 90.3474 106.138 106.138 106.138 106.138 106.138 106.138 106.138 106.135 105.878 106.114 99.3005 105.103 
        </DataArray>
        <DataArray type="Float32" Name="F1_Temperature_SG_co2gas_mod.xml" format="ascii">
466.385 466.385 466.381 466.384 421.895 421.677 466.399 466.402 428.344 430.189 370.539 370.541 378.884 378.654 466.385 466.385 472.333 473.455 467.605 468.726 468.82 466.149 466.385 466.385 475.363 475.415 466.385 466.385 466.385 466.385 466.385 466.385 466.289 466.385 466.385 466.385 466.385 466.385 466.385 463.734 463.734 466.385 466.385 466.385 466.383 466.241 466.239 466.383 466.385 466.385 466.385 466.385 469.229 466.385 466.385 466.385 466.385 466.385 466.385 466.385 466.385 466.317 466.379 464.56 466.122 
        </DataArray>
        <DataArray type="Float32" Name="F1_Mass fraction_SG_co2gas_mod.xml" format="ascii">
1 1 1 1 1 1 1 1 1 1 1 1 1 1 1 1 1 1 1 1 1 1 1 1 1 1 1 1 1 1 1 1 1 1 1 1 1 1 1 1 1 1 1 1 1 1 1 1 1 1 1 1 1 1 1 1 1 1 1 1 1 1 1 1 1 
        </DataArray>
        <DataArray type="Float32" Name="Density_Mixture" format="ascii">
106.137 106.138 106.119 106.134 286.123 285.122 106.188 106.201 255.866 256.759 345.31 345.321 384.503 379.856 106.138 106.138 134.663 147.258 110.452 113.875 114.313 105.193 106.138 106.138 138.652 138.939 106.138 106.138 106.138 106.138 106.138 106.138 105.773 106.138 106.138 106.138 106.138 106.138 106.138 96.0963 96.0963 106.138 106.138 106.138 106.129 105.588 105.582 106.128 106.138 106.138 106.138 106.138 90.3474 106.138 106.138 106.138 106.138 106.138 106.138 106.138 106.135 105.878 106.114 99.3005 105.103 
        </DataArray>
        <DataArray type="Float32" Name="Pressure_Mixture" format="ascii">
6.27179e+06 6.27189e+06 6.27055e+06 6.27158e+06 1.65692e+07 1.64992e+07 6.27548e+06 6.2764e+06 1.4962e+07 1.50858e+07 1.76157e+07 1.76164e+07 2.01797e+07 1.99124e+07 6.27186e+06 6.27185e+06 8.31137e+06 9.19553e+06 6.58227e+06 6.8322e+06 6.8634e+06 6.20452e+06 6.27186e+06 6.27186e+06 8.64462e+06 8.66538e+06 6.27186e+06 6.27186e+06 6.27186e+06 6.27186e+06 6.27186e+06 6.27186e+06 6.24578e+06 6.27188e+06 6.27186e+06 6.27186e+06 6.27186e+06 6.27186e+06 6.27186e+06 5.55783e+06 5.55783e+06 6.27186e+06 6.27186e+06 6.27185e+06 6.27122e+06 6.2326e+06 6.23217e+06 6.27119e+06 6.27185e+06 6.27186e+06 6.27186e+06 6.27186e+06 5.24411e+06 6.27186e+06 6.27186e+06 6.27186e+06 6.27186e+06 6.27186e+06 6.27186e+06 6.27184e+06 6.27165e+06 6.25328e+06 6.27017e+06 5.78454e+06 6.19811e+06 
        </DataArray>
        <DataArray type="Float32" Name="Velocity_Mixture" NumberOfComponents="3" format="ascii">
-0.00251504 -3.64708e-06 0 0.000848228 0.000186254 0 -0.0295343 0.0346659 0 -0.00592776 -0.005762 0 252.966 -10.636 0 253.72 12.3204 0 0.119477 -0.045237 0 0.145802 0.0634541 0 237.871 46.2733 0 234.518 -38.7655 0 329.101 0.523148 0 329.096 -0.525516 0 303.63 -36.9712 0 299.148 52.3171 0 7.27902e-05 6.69671e-05 0 -0.000139737 0.00010775 0 72.26 -2.86549 0 69.1886 27.1384 0 10.276 -3.62231 0 19.9236 -5.71861 0 19.6432 5.36333 0 -2.09359 -6.32322 0 0 0 0 0 0 0 82.3958 -14.9141 0 83.2276 16.1476 0 0 0 0 0 0 0 0 0 0 0 0 0 0 0 0 0 0 0 -0.543148 -0.155775 0 -0.201998 -0.128718 0 0 0 0 0 0 0 0 0 0 0 0 0 0 0 0 6.55969 -1.38215 0 6.55932 1.38262 0 0 0 0 0 0 0 4.66217e-06 -4.28933e-05 0 0.00363665 -0.00542049 0 0.25095 -0.202191 0 0.276104 0.193822 0 0.00417126 0.0054464 0 9.89264e-06 4.69091e-05 0 0 0 0 0 0 0 0 0 0 38.5808 9.71737e-05 0 0 0 0 0 0 0 0 0 0 0 0 0 0 0 0 0 0 0 0.000690098 -2.13417e-05 0 0.00185577 0.000360758 0 0.188447 0.0319528 0 0.0961337 -0.00344087 0 6.89555 -0.00156388 0 4.64727 -0.14849 0 
        </DataArray>
        <DataArray type="Float32" Name="gradRho" format="ascii">
0.00513793 0.00119688 0.0127931 0.122007 64.5478 64.5467 3.14326 2.97119 64.2924 70.1129 41.1071 41.8075 30.159 29.2728 0.000134993 0.000284521 44.9543 44.0229 8.33636 11.9811 11.134 11.1035 2.30021e-05 9.86718e-06 57.7555 58.2607 0 2.00782e-08 2.7441e-08 3.71706e-07 6.88351e-07 0 0.253555 1.51199 0 0 0 0 0 0.919652 0.919642 2.6176e-10 9.84599e-08 2.84749e-05 0.00268994 0.0751648 0.0731036 0.00249378 2.46645e-05 8.3627e-08 2.6176e-10 0 0.828839 0 0 9.15495e-09 2.23731e-08 9.0747e-06 3.90211e-06 0.000961556 0.00156922 0.110842 0.0840774 2.33902 2.07736 
        </DataArray>
      </CellData>
    </Piece>
  </UnstructuredGrid>
</VTKFile>
