<?xml version="1.0"?>
<VTKFile type="UnstructuredGrid" version="0.1" byte_order="LittleEndian">
  <UnstructuredGrid>
    <Piece NumberOfPoints="50" NumberOfCells="65">
      <Points>
        <DataArray type="Float32" NumberOfComponents="3" format="ascii">
          0 5 0 0 -5 0 15 0.2 0 15 -0.2 0 35 0.2 0 35 -0.2 0 2.14286 4.31429 0 4.28571 3.62857 0 6.42857 2.94286 0 8.57143 2.25714 0 10.7143 1.57143 0 12.8571 0.885714 0 17.8571 0.2 0 20.7143 0.2 0 23.5714 0.2 0 26.4286 0.2 0 29.2857 0.2 0 32.1429 0.2 0 32.1429 -0.2 0 29.2857 -0.2 0 26.4286 -0.2 0 23.5714 -0.2 0 20.7143 -0.2 0 17.8571 -0.2 0 12.8571 -0.885714 0 10.7143 -1.57143 0 8.57143 -2.25714 0 6.42857 -2.94286 0 4.28571 -3.62857 0 2.14286 -4.31429 0 0 -2.5 0 0 -6.16307e-12 0 0 2.5 0 3.95974 -5.7158e-13 0 13.9286 -3.66374e-15 0 6.61813 2.81487e-12 0 2.86365 2.0434 0 2.86365 -2.0434 0 9.43036 1.987e-12 0 11.3926 2.79508e-14 0 4.83116 1.72297 0 4.83116 -1.72297 0 1.90629 -3.21031e-12 0 33.5714 0 0 16.4286 -1.80625e-18 0 25 6.93889e-18 0 19.2857 -6.93889e-18 0 30.7143 0 0 22.1429 0 0 27.8571 0 0 
        </DataArray>
      </Points>
      <Cells>
        <DataArray type="Int32" Name="connectivity" format="ascii">
          8 9 35 26 27 35 8 35 40 27 41 35 30 42 37 32 36 42 33 40 35 33 35 41 29 30 37 6 36 32 30 31 42 31 32 42 0 6 32 30 29 1 26 35 38 9 38 35 6 7 36 28 29 37 7 40 36 33 41 37 33 36 40 28 37 41 9 10 38 25 26 38 33 42 36 33 37 42 11 34 24 24 25 39 10 11 39 25 38 39 10 39 38 11 24 39 27 28 41 7 8 40 2 34 11 3 24 34 2 3 34 2 44 12 3 23 44 4 17 43 5 43 18 12 46 13 13 48 14 14 45 15 15 49 16 16 47 17 18 47 19 19 49 20 20 45 21 21 48 22 22 46 23 2 3 44 4 43 5 12 44 23 12 23 46 13 46 22 13 22 48 14 21 45 14 48 21 15 45 20 15 20 49 16 19 47 16 49 19 17 18 43 17 47 18 
        </DataArray>
        <DataArray type="Int32" Name="offsets" format="ascii">
          3 6 9 12 15 18 21 24 27 30 33 36 39 42 45 48 51 54 57 60 63 66 69 72 75 78 81 84 87 90 93 96 99 102 105 108 111 114 117 120 123 126 129 132 135 138 141 144 147 150 153 156 159 162 165 168 171 174 177 180 183 186 189 192 195 
        </DataArray>
        <DataArray type="UInt8" Name="types" format="ascii">
          5 5 5 5 5 5 5 5 5 5 5 5 5 5 5 5 5 5 5 5 5 5 5 5 5 5 5 5 5 5 5 5 5 5 5 5 5 5 5 5 5 5 5 5 5 5 5 5 5 5 5 5 5 5 5 5 5 5 5 5 5 5 5 5 5 
        </DataArray>
      </Cells>
      <CellData>
        <DataArray type="Float32" Name="F0_Alpha_SG_co2liq_mod.xml" format="ascii">
1.68818e-10 1.68285e-10 1.64932e-10 1.65344e-10 1.64976e-10 1.6489e-10 1.6409e-10 1.63727e-10 1.63291e-10 1.63252e-10 1.67782e-10 1.67782e-10 1.60692e-10 1.60992e-10 1.72117e-10 1.71686e-10 1.62278e-10 1.62526e-10 1.6181e-10 1.62532e-10 1.6314e-10 1.61304e-10 1.72615e-10 1.72703e-10 1.63909e-10 1.63936e-10 1.72682e-10 1.72682e-10 1.72688e-10 1.72687e-10 1.72694e-10 1.72683e-10 1.61958e-10 1.62017e-10 1.72682e-10 1.72682e-10 1.72682e-10 1.72682e-10 1.72682e-10 1.73379e-10 1.73379e-10 1.72682e-10 1.72683e-10 1.72691e-10 1.72756e-10 1.73e-10 1.73e-10 1.72756e-10 1.72692e-10 1.72683e-10 1.72682e-10 1.72682e-10 1.73408e-10 1.72682e-10 1.72682e-10 1.72682e-10 1.72682e-10 1.72688e-10 1.72683e-10 1.72696e-10 1.72736e-10 1.72938e-10 1.72778e-10 1.73314e-10 1.73056e-10 
        </DataArray>
        <DataArray type="Float32" Name="F0_Density_SG_co2liq_mod.xml" format="ascii">
6116.51 6145.23 6333.27 6311.58 6522.05 6527.17 6443.38 6465.85 6638.39 6640.74 6347.77 6347.75 6823.69 6803.07 5931.53 5956.82 6660.05 6646.8 6636.93 6606.15 6572.04 6665.69 5901.38 5895.77 6553.5 6551.86 5897.13 5897.12 5896.75 5896.79 5896.38 5897.07 6545.77 6539.77 5897.13 5897.13 5897.13 5897.13 5897.13 5848.79 5848.8 5897.13 5897.08 5896.52 5892.36 5876.29 5876.29 5892.38 5896.52 5897.08 5897.13 5897.13 5842.85 5897.13 5897.13 5897.13 5897.1 5896.73 5897.06 5896.26 5893.69 5880.44 5890.94 5853.95 5872.36 
        </DataArray>
        <DataArray type="Float32" Name="F0_Temperature_SG_co2liq_mod.xml" format="ascii">
42.1734 42.2029 42.3438 42.3311 42.4289 42.4307 42.3983 42.4077 42.4646 42.4652 42.3519 42.3519 42.5037 42.5002 41.8762 41.9339 42.4702 42.4668 42.4642 42.4557 42.4455 42.4716 41.7938 41.7764 42.4396 42.4391 41.7807 41.7806 41.7795 41.7796 41.7783 41.7805 42.4371 42.4351 41.7807 41.7807 41.7807 41.7807 41.7807 41.5869 41.5869 41.7807 41.7805 41.7788 41.7654 41.7089 41.7089 41.7654 41.7788 41.7805 41.7807 41.7807 41.5542 41.7807 41.7807 41.7807 41.7806 41.7794 41.7804 41.7779 41.7697 41.7243 41.7607 41.6131 41.6937 
        </DataArray>
        <DataArray type="Float32" Name="F0_Mass fraction_SG_co2liq_mod.xml" format="ascii">
5.35094e-09 5.09611e-09 3.86654e-09 3.9593e-09 2.33622e-09 2.32686e-09 3.02802e-09 2.95611e-09 2.10741e-09 2.1041e-09 2.74746e-09 2.74753e-09 1.82566e-09 1.85134e-09 8.40065e-09 7.73478e-09 2.17113e-09 2.18711e-09 2.35068e-09 2.36749e-09 2.42379e-09 2.30621e-09 9.41976e-09 9.65224e-09 2.37353e-09 2.37673e-09 9.59425e-09 9.59476e-09 9.61058e-09 9.60887e-09 9.62619e-09 9.59676e-09 2.85502e-09 2.88262e-09 9.59436e-09 9.59439e-09 9.5944e-09 9.5944e-09 9.5944e-09 1.25044e-08 1.25044e-08 9.5945e-09 9.59635e-09 9.62e-09 9.80059e-09 1.05956e-08 1.05956e-08 9.80011e-09 9.62005e-09 9.59636e-09 9.5945e-09 9.5944e-09 1.33154e-08 9.59441e-09 9.59445e-09 9.59457e-09 9.59554e-09 9.61106e-09 9.59753e-09 9.63106e-09 9.74193e-09 1.03735e-08 9.86515e-09 1.20681e-08 1.08237e-08 
        </DataArray>
        <DataArray type="Float32" Name="F1_Alpha_SG_co2gas_mod.xml" format="ascii">
1 1 1 1 1 1 1 1 1 1 1 1 1 1 1 1 1 1 1 1 1 1 1 1 1 1 1 1 1 1 1 1 1 1 1 1 1 1 1 1 1 1 1 1 1 1 1 1 1 1 1 1 1 1 1 1 1 1 1 1 1 1 1 1 1 
        </DataArray>
        <DataArray type="Float32" Name="F1_Density_SG_co2gas_mod.xml" format="ascii">
192.971 202.929 270.153 263.577 460.566 462.54 349.17 358.117 514.371 515.239 387.645 387.635 600.613 591.595 121.528 132.221 497.796 493.928 456.856 453.524 442.35 466.221 108.141 105.49 452.567 451.917 106.139 106.134 105.956 105.975 105.781 106.111 371.324 367.566 106.138 106.138 106.138 106.138 106.138 81.0962 81.0966 106.137 106.116 105.85 103.865 95.9457 95.9451 103.871 105.85 106.116 106.137 106.138 76.0922 106.138 106.137 106.136 106.125 105.95 106.103 105.727 104.502 98.0341 103.174 84.0703 93.8907 
        </DataArray>
        <DataArray type="Float32" Name="F1_Temperature_SG_co2gas_mod.xml" format="ascii">
489.182 491.807 496.254 493.925 363.124 363.497 439.677 439.675 364.173 364.34 352.502 352.501 364.448 364.101 471.308 474.373 383.758 382.166 409.471 400.813 397.643 411.82 466.907 466.217 381.588 381.506 466.386 466.384 466.337 466.342 466.292 466.378 461.472 463.361 466.385 466.385 466.385 466.385 466.385 459.523 459.523 466.385 466.38 466.31 465.784 463.652 463.646 465.785 466.309 466.38 466.385 466.385 467.391 466.385 466.385 466.385 466.382 466.336 466.376 466.277 465.952 464.204 465.62 460.219 463.316 
        </DataArray>
        <DataArray type="Float32" Name="F1_Mass fraction_SG_co2gas_mod.xml" format="ascii">
1 1 1 1 1 1 1 1 1 1 1 1 1 1 1 1 1 1 1 1 1 1 1 1 1 1 1 1 1 1 1 1 1 1 1 1 1 1 1 1 1 1 1 1 1 1 1 1 1 1 1 1 1 1 1 1 1 1 1 1 1 1 1 1 1 
        </DataArray>
        <DataArray type="Float32" Name="Density_Mixture" format="ascii">
192.971 202.929 270.153 263.577 460.566 462.54 349.17 358.117 514.371 515.239 387.645 387.635 600.613 591.595 121.528 132.221 497.796 493.928 456.856 453.524 442.35 466.221 108.141 105.49 452.567 451.917 106.139 106.134 105.956 105.975 105.781 106.111 371.324 367.566 106.138 106.138 106.138 106.138 106.138 81.0962 81.0966 106.137 106.116 105.85 103.865 95.9457 95.9451 103.871 105.85 106.116 106.137 106.138 76.0922 106.138 106.137 106.136 106.125 105.95 106.103 105.727 104.502 98.0341 103.174 84.0703 93.8907 
        </DataArray>
        <DataArray type="Float32" Name="Pressure_Mixture" format="ascii">
1.2764e+07 1.35454e+07 1.84997e+07 1.79391e+07 2.32973e+07 2.34259e+07 2.13133e+07 2.1882e+07 2.62005e+07 2.62586e+07 1.8873e+07 1.88724e+07 3.07658e+07 3.02609e+07 7.3963e+06 8.18361e+06 2.67374e+07 2.6409e+07 2.61642e+07 2.53992e+07 2.45488e+07 2.68771e+07 6.41514e+06 6.22563e+06 2.40856e+07 2.40443e+07 6.27198e+06 6.27157e+06 6.25885e+06 6.26023e+06 6.24637e+06 6.26996e+06 2.38921e+07 2.37417e+07 6.27189e+06 6.27187e+06 6.27186e+06 6.27186e+06 6.27186e+06 4.5026e+06 4.50263e+06 6.27178e+06 6.27029e+06 6.25131e+06 6.10959e+06 5.54659e+06 5.54647e+06 6.10996e+06 6.25127e+06 6.27028e+06 6.27178e+06 6.27186e+06 4.25667e+06 6.27185e+06 6.27182e+06 6.27172e+06 6.27094e+06 6.25847e+06 6.26934e+06 6.24248e+06 6.155e+06 5.69443e+06 6.06056e+06 4.70868e+06 5.40425e+06 
        </DataArray>
        <DataArray type="Float32" Name="Velocity_Mixture" NumberOfComponents="3" format="ascii">
177.789 -23.8949 0 161.726 47.3202 0 240.171 -37.5206 0 243.159 40.5427 0 321.471 29.3821 0 321.184 -31.1195 0 289.355 -15.9846 0 291.297 26.5727 0 303.648 50.7095 0 303.808 -51.4045 0 343.79 0.058677 0 343.794 -0.0557539 0 272.305 -42.7805 0 273.713 46.0138 0 29.6974 5.98262 0 62.8953 -18.6618 0 293.113 -71.2792 0 297.317 76.6952 0 295.17 -71.8209 0 290.304 45.3069 0 298.469 -38.9454 0 289.5 86.0634 0 2.72411 -1.34359 0 -1.33713 0.466436 0 305.667 -17.1799 0 304.972 16.5233 0 0.00426138 -0.000652583 0 -4.12938e-05 0.00483704 0 -0.419351 -0.0440078 0 -0.286266 0.17811 0 -0.722634 0.804052 0 -0.0505238 0.0630313 0 282.738 86.6889 0 284.951 -71.3562 0 0.000792535 0.000266836 0 0.000189231 -5.42919e-05 0 0 -9.80423e-05 0 0 -1.2725e-05 0 0 1.39085e-05 0 35.6847 -0.587928 0 35.689 0.589759 0 0.000496873 -0.000348274 0 0.0115187 -0.00565528 0 0.164906 -0.0543674 0 1.50531 -0.280835 0 8.83018 -0.678232 0 8.82217 0.66593 0 1.52585 0.270816 0 0.171766 0.052206 0 0.0121977 0.00546253 0 0.000542679 0.000341907 0 0 0 0 72.5626 0.00236409 0 0.000267871 0 0 0.000447354 4.40171e-05 0 0.00847037 -0.000220068 0 0.0123153 0.00106754 0 0.208645 0.0128933 0 0.15748 -0.00373923 0 1.8231 -0.0363858 0 2.23617 0.0643416 0 14.7462 0.0453267 0 12.3573 -0.0959987 0 57.258 -0.00198093 0 44.7114 -0.0499993 0 
        </DataArray>
        <DataArray type="Float32" Name="gradRho" format="ascii">
32.3921 31.3648 51.1521 48.9616 32.4212 32.4546 53.4584 56.9495 39.8478 41.1325 50.6454 52.0217 20.156 18.2319 25.8156 25.6153 14.3803 12.4234 49.2183 34.2282 36.8576 47.6958 8.68475 5.32415 6.71015 2.43226 0.0117281 0.0570825 0.0925359 0.208601 0.709391 0.0771172 49.8912 46.2218 0.000546356 0.000723423 0.000239985 7.0105e-06 5.70747e-06 0.777084 0.777231 0.00013193 0.00193455 0.0172491 0.0967874 0.298809 0.298819 0.0972194 0.0171486 0.00189686 0.000127661 5.45963e-06 0.72147 0.000174505 0.000221008 0.00389198 0.00469513 0.0628781 0.054489 0.440446 0.489512 1.99967 1.86565 3.72299 3.63464 
        </DataArray>
      </CellData>
    </Piece>
  </UnstructuredGrid>
</VTKFile>
