<?xml version="1.0"?>
<VTKFile type="UnstructuredGrid" version="0.1" byte_order="LittleEndian">
  <UnstructuredGrid>
    <Piece NumberOfPoints="50" NumberOfCells="65">
      <Points>
        <DataArray type="Float32" NumberOfComponents="3" format="ascii">
          0 5 0 0 -5 0 15 0.2 0 15 -0.2 0 35 0.2 0 35 -0.2 0 2.14286 4.31429 0 4.28571 3.62857 0 6.42857 2.94286 0 8.57143 2.25714 0 10.7143 1.57143 0 12.8571 0.885714 0 17.8571 0.2 0 20.7143 0.2 0 23.5714 0.2 0 26.4286 0.2 0 29.2857 0.2 0 32.1429 0.2 0 32.1429 -0.2 0 29.2857 -0.2 0 26.4286 -0.2 0 23.5714 -0.2 0 20.7143 -0.2 0 17.8571 -0.2 0 12.8571 -0.885714 0 10.7143 -1.57143 0 8.57143 -2.25714 0 6.42857 -2.94286 0 4.28571 -3.62857 0 2.14286 -4.31429 0 0 -2.5 0 0 -6.16307e-12 0 0 2.5 0 3.95974 -5.7158e-13 0 13.9286 -3.66374e-15 0 6.61813 2.81487e-12 0 2.86365 2.0434 0 2.86365 -2.0434 0 9.43036 1.987e-12 0 11.3926 2.79508e-14 0 4.83116 1.72297 0 4.83116 -1.72297 0 1.90629 -3.21031e-12 0 33.5714 0 0 16.4286 -1.80625e-18 0 25 6.93889e-18 0 19.2857 -6.93889e-18 0 30.7143 0 0 22.1429 0 0 27.8571 0 0 
        </DataArray>
      </Points>
      <Cells>
        <DataArray type="Int32" Name="connectivity" format="ascii">
          8 9 35 26 27 35 8 35 40 27 41 35 30 42 37 32 36 42 33 40 35 33 35 41 29 30 37 6 36 32 30 31 42 31 32 42 0 6 32 30 29 1 26 35 38 9 38 35 6 7 36 28 29 37 7 40 36 33 41 37 33 36 40 28 37 41 9 10 38 25 26 38 33 42 36 33 37 42 11 34 24 24 25 39 10 11 39 25 38 39 10 39 38 11 24 39 27 28 41 7 8 40 2 34 11 3 24 34 2 3 34 2 44 12 3 23 44 4 17 43 5 43 18 12 46 13 13 48 14 14 45 15 15 49 16 16 47 17 18 47 19 19 49 20 20 45 21 21 48 22 22 46 23 2 3 44 4 43 5 12 44 23 12 23 46 13 46 22 13 22 48 14 21 45 14 48 21 15 45 20 15 20 49 16 19 47 16 49 19 17 18 43 17 47 18 
        </DataArray>
        <DataArray type="Int32" Name="offsets" format="ascii">
          3 6 9 12 15 18 21 24 27 30 33 36 39 42 45 48 51 54 57 60 63 66 69 72 75 78 81 84 87 90 93 96 99 102 105 108 111 114 117 120 123 126 129 132 135 138 141 144 147 150 153 156 159 162 165 168 171 174 177 180 183 186 189 192 195 
        </DataArray>
        <DataArray type="UInt8" Name="types" format="ascii">
          5 5 5 5 5 5 5 5 5 5 5 5 5 5 5 5 5 5 5 5 5 5 5 5 5 5 5 5 5 5 5 5 5 5 5 5 5 5 5 5 5 5 5 5 5 5 5 5 5 5 5 5 5 5 5 5 5 5 5 5 5 5 5 5 5 
        </DataArray>
      </Cells>
      <CellData>
        <DataArray type="Float32" Name="F0_Alpha_SG_co2liq_mod.xml" format="ascii">
1.72678e-10 1.7268e-10 1.72645e-10 1.72668e-10 1.6561e-10 1.65711e-10 1.72189e-10 1.72179e-10 1.65415e-10 1.65107e-10 1.67729e-10 1.6773e-10 1.64208e-10 1.64495e-10 1.72682e-10 1.72682e-10 1.66992e-10 1.65886e-10 1.70104e-10 1.69403e-10 1.69334e-10 1.70381e-10 1.72682e-10 1.72682e-10 1.67446e-10 1.67426e-10 1.72682e-10 1.72682e-10 1.72682e-10 1.72682e-10 1.72682e-10 1.72682e-10 1.72554e-10 1.72395e-10 1.72682e-10 1.72682e-10 1.72682e-10 1.72682e-10 1.72682e-10 1.73166e-10 1.73165e-10 1.72682e-10 1.72682e-10 1.72682e-10 1.72687e-10 1.72761e-10 1.72761e-10 1.72687e-10 1.72682e-10 1.72682e-10 1.72682e-10 1.72682e-10 1.73222e-10 1.72682e-10 1.72682e-10 1.72682e-10 1.72682e-10 1.72682e-10 1.72682e-10 1.72682e-10 1.72684e-10 1.72734e-10 1.7269e-10 1.73073e-10 1.72793e-10 
        </DataArray>
        <DataArray type="Float32" Name="F0_Density_SG_co2liq_mod.xml" format="ascii">
5897.38 5897.26 5899.5 5898.04 6427.45 6420.94 5927.12 5927.7 6427.4 6446.83 6337.95 6337.91 6562.34 6543.5 5897.13 5897.14 6248.38 6316.52 6045.88 6091.89 6095.85 6030.5 5897.13 5897.13 6232.15 6233 5897.13 5897.13 5897.13 5897.13 5897.13 5897.13 5904.98 5914.65 5897.13 5897.13 5897.13 5897.13 5897.13 5864.79 5864.8 5897.13 5897.13 5897.12 5896.83 5892.08 5892.09 5896.82 5897.12 5897.13 5897.13 5897.13 5857.27 5897.13 5897.13 5897.13 5897.13 5897.13 5897.13 5897.11 5896.97 5893.83 5896.6 5871.3 5889.99 
        </DataArray>
        <DataArray type="Float32" Name="F0_Temperature_SG_co2liq_mod.xml" format="ascii">
41.7815 41.7811 41.7881 41.7835 42.3913 42.3884 41.8651 41.8666 42.3913 42.3998 42.3464 42.3464 42.4425 42.4363 41.7807 41.7807 42.2895 42.334 42.0867 42.1457 42.1503 42.0645 41.7807 41.7807 42.2776 42.2782 41.7807 41.7807 41.7807 41.7807 41.7807 41.7807 41.8046 41.8322 41.7807 41.7807 41.7807 41.7807 41.7807 41.6626 41.6626 41.7807 41.7807 41.7806 41.7797 41.7645 41.7645 41.7797 41.7806 41.7807 41.7807 41.7807 41.629 41.7807 41.7807 41.7807 41.7807 41.7807 41.7807 41.7806 41.7802 41.7702 41.779 41.6895 41.7576 
        </DataArray>
        <DataArray type="Float32" Name="F0_Mass fraction_SG_co2liq_mod.xml" format="ascii">
9.58384e-09 9.58901e-09 9.49633e-09 9.55648e-09 2.73514e-09 2.75416e-09 8.53748e-09 8.51976e-09 2.7833e-09 2.72817e-09 2.82764e-09 2.82777e-09 2.28068e-09 2.31827e-09 9.59452e-09 9.59377e-09 4.01203e-09 3.63475e-09 6.15333e-09 5.46577e-09 5.4227e-09 6.37019e-09 9.59441e-09 9.59441e-09 4.01255e-09 4.01041e-09 9.5944e-09 9.5944e-09 9.5944e-09 9.5944e-09 9.59441e-09 9.5944e-09 9.28908e-09 8.94227e-09 9.5944e-09 9.5944e-09 9.5944e-09 9.5944e-09 9.5944e-09 1.12877e-08 1.12875e-08 9.5944e-09 9.5944e-09 9.59475e-09 9.60716e-09 9.81328e-09 9.81287e-09 9.60728e-09 9.59475e-09 9.59441e-09 9.5944e-09 9.5944e-09 1.20334e-08 9.5944e-09 9.5944e-09 9.5944e-09 9.5944e-09 9.59454e-09 9.59441e-09 9.59515e-09 9.60104e-09 9.73572e-09 9.61688e-09 1.08802e-08 9.90887e-09 
        </DataArray>
        <DataArray type="Float32" Name="F1_Alpha_SG_co2gas_mod.xml" format="ascii">
1 1 1 1 1 1 1 1 1 1 1 1 1 1 1 1 1 1 1 1 1 1 1 1 1 1 1 1 1 1 1 1 1 1 1 1 1 1 1 1 1 1 1 1 1 1 1 1 1 1 1 1 1 1 1 1 1 1 1 1 1 1 1 1 1 
        </DataArray>
        <DataArray type="Float32" Name="F1_Density_SG_co2gas_mod.xml" format="ascii">
106.257 106.198 107.254 106.566 389.177 386.332 119.542 119.795 381.987 390.158 375.953 375.934 472.484 464.301 106.136 106.145 260.076 288.279 167.134 188.809 190.354 161.295 106.138 106.138 260.071 260.214 106.138 106.138 106.138 106.138 106.138 106.138 109.691 114.027 106.138 106.138 106.138 106.138 106.138 89.9725 89.9741 106.138 106.138 106.134 105.994 103.729 103.733 105.993 106.134 106.138 106.138 106.138 84.3157 106.138 106.138 106.138 106.138 106.136 106.138 106.129 106.063 104.57 105.885 93.3959 102.711 
        </DataArray>
        <DataArray type="Float32" Name="F1_Temperature_SG_co2gas_mod.xml" format="ascii">
466.417 466.401 466.689 466.505 387.297 387.186 471.019 471.101 394.564 395.036 358.814 358.814 368.735 368.215 466.385 466.387 456.778 454.672 483.456 475.144 475.271 482.163 466.385 466.385 445.436 445.785 466.385 466.385 466.385 466.385 466.385 466.385 467.874 469.406 466.385 466.385 466.385 466.385 466.385 462.041 462.041 466.385 466.385 466.384 466.347 465.749 465.75 466.347 466.384 466.385 466.385 466.385 469.53 466.385 466.385 466.385 466.385 466.385 466.385 466.383 466.366 465.971 466.319 462.928 465.534 
        </DataArray>
        <DataArray type="Float32" Name="F1_Mass fraction_SG_co2gas_mod.xml" format="ascii">
1 1 1 1 1 1 1 1 1 1 1 1 1 1 1 1 1 1 1 1 1 1 1 1 1 1 1 1 1 1 1 1 1 1 1 1 1 1 1 1 1 1 1 1 1 1 1 1 1 1 1 1 1 1 1 1 1 1 1 1 1 1 1 1 1 
        </DataArray>
        <DataArray type="Float32" Name="Density_Mixture" format="ascii">
106.257 106.198 107.254 106.567 389.177 386.332 119.542 119.795 381.987 390.158 375.953 375.934 472.484 464.301 106.136 106.145 260.076 288.279 167.134 188.809 190.354 161.295 106.138 106.138 260.071 260.214 106.138 106.138 106.138 106.138 106.138 106.138 109.691 114.027 106.138 106.138 106.138 106.138 106.138 89.9725 89.9741 106.138 106.138 106.134 105.994 103.729 103.733 105.993 106.134 106.138 106.138 106.138 84.3157 106.138 106.138 106.138 106.138 106.136 106.138 106.129 106.063 104.57 105.885 93.3959 102.711 
        </DataArray>
        <DataArray type="Float32" Name="Pressure_Mixture" format="ascii">
6.28037e+06 6.2762e+06 6.35183e+06 6.30261e+06 2.09091e+07 2.07436e+07 7.2559e+06 7.27459e+06 2.09079e+07 2.14007e+07 1.86202e+07 1.86191e+07 2.43064e+07 2.38352e+07 6.27176e+06 6.27236e+06 1.6292e+07 1.80671e+07 1.0798e+07 1.20863e+07 1.21959e+07 1.03596e+07 6.27185e+06 6.27185e+06 1.58652e+07 1.58876e+07 6.27186e+06 6.27186e+06 6.27186e+06 6.27186e+06 6.27185e+06 6.27186e+06 6.53509e+06 6.8537e+06 6.27186e+06 6.27186e+06 6.27186e+06 6.27186e+06 6.27186e+06 5.12516e+06 5.12527e+06 6.27186e+06 6.27185e+06 6.27158e+06 6.2616e+06 6.09986e+06 6.10017e+06 6.2615e+06 6.27157e+06 6.27185e+06 6.27186e+06 6.27186e+06 4.83853e+06 6.27186e+06 6.27186e+06 6.27186e+06 6.27186e+06 6.27174e+06 6.27185e+06 6.27125e+06 6.26651e+06 6.15984e+06 6.25381e+06 5.36587e+06 6.0281e+06 
        </DataArray>
        <DataArray type="Float32" Name="Velocity_Mixture" NumberOfComponents="3" format="ascii">
0.308833 0.00391685 0 0.119946 0.0176862 0 2.23663 0.271735 0 1.08869 -1.72912 0 307.818 3.09172 0 309.338 -2.42655 0 34.7897 -4.96961 0 35.7276 4.64025 0 300.793 43.8359 0 298.428 -40.594 0 341.178 0.144294 0 341.175 -0.14565 0 302.68 -43.1882 0 302.778 48.2379 0 -0.00276299 -0.0038841 0 0.0143312 -0.010448 0 230.015 -35.821 0 225.906 68.1771 0 130.019 -18.1093 0 164.168 -11.3094 0 162.189 10.0151 0 101.345 27.572 0 -0.000607055 -0.00041792 0 -0.000157346 1.94048e-05 0 236.428 -22.5915 0 237.895 25.4334 0 0 0 0 0 0 0 0 0 0 1.334e-05 2.24319e-05 0 -0.000158337 0.000124514 0 0 0 0 6.46144 0.159375 0 20.6182 1.66528 0 0 0 0 0 0 0 0 0 0 0 0 0 0 0 0 13.4137 -1.12319 0 13.414 1.12556 0 0 0 0 0 -3.05389e-05 0 0.00170636 -0.00178535 0 0.0697949 -0.0459234 0 1.33893 -0.451314 0 1.40287 0.426796 0 0.0750981 0.0443772 0 0.00189767 0.00176246 0 2.1914e-06 3.30111e-05 0 0 0 0 0 0 0 53.5721 0.00261367 0 0 0 0 0 0 0 0 0 0 0 0 0 0.00114728 0.000181585 0 0.000556659 -9.86353e-06 0 0.0362019 -0.00115463 0 0.0609226 0.00751837 0 1.59771 0.134202 0 1.13653 -0.0304757 0 20.0691 -0.005016 0 15.4886 -0.33315 0 
        </DataArray>
        <DataArray type="Float32" Name="gradRho" format="ascii">
0.305516 0.116135 3.19732 3.3757 39.4074 40.1092 29.544 29.0548 51.3321 65.2155 9.18568 7.21968 19.4365 19.4334 0.0152417 0.0343114 61.3956 56.942 45.9781 48.0448 47.6103 54.4706 0.00243169 0.000463542 65.3318 66.8005 1.93051e-08 2.29286e-06 2.93342e-05 3.36844e-05 5.33355e-05 1.21178e-06 18.4249 19.3968 1.46489e-11 1.46489e-11 0 1.67625e-09 1.67625e-09 0.871257 0.871783 1.68366e-07 1.79289e-05 0.000776235 0.016489 0.141562 0.142313 0.0160713 0.000733828 1.49845e-05 1.41131e-07 0 0.815683 2.97317e-08 5.25978e-08 5.50139e-06 9.56195e-06 0.000742548 0.000526558 0.0236303 0.0298761 0.541001 0.470803 3.58917 3.35826 
        </DataArray>
      </CellData>
    </Piece>
  </UnstructuredGrid>
</VTKFile>
