<?xml version="1.0"?>
<VTKFile type="UnstructuredGrid" version="0.1" byte_order="LittleEndian">
  <UnstructuredGrid>
    <Piece NumberOfPoints="50" NumberOfCells="65">
      <Points>
        <DataArray type="Float32" NumberOfComponents="3" format="ascii">
          0 5 0 0 -5 0 15 0.2 0 15 -0.2 0 35 0.2 0 35 -0.2 0 2.14286 4.31429 0 4.28571 3.62857 0 6.42857 2.94286 0 8.57143 2.25714 0 10.7143 1.57143 0 12.8571 0.885714 0 17.8571 0.2 0 20.7143 0.2 0 23.5714 0.2 0 26.4286 0.2 0 29.2857 0.2 0 32.1429 0.2 0 32.1429 -0.2 0 29.2857 -0.2 0 26.4286 -0.2 0 23.5714 -0.2 0 20.7143 -0.2 0 17.8571 -0.2 0 12.8571 -0.885714 0 10.7143 -1.57143 0 8.57143 -2.25714 0 6.42857 -2.94286 0 4.28571 -3.62857 0 2.14286 -4.31429 0 0 -2.5 0 0 -6.16307e-12 0 0 2.5 0 3.95974 -5.7158e-13 0 13.9286 -3.66374e-15 0 6.61813 2.81487e-12 0 2.86365 2.0434 0 2.86365 -2.0434 0 9.43036 1.987e-12 0 11.3926 2.79508e-14 0 4.83116 1.72297 0 4.83116 -1.72297 0 1.90629 -3.21031e-12 0 33.5714 0 0 16.4286 -1.80625e-18 0 25 6.93889e-18 0 19.2857 -6.93889e-18 0 30.7143 0 0 22.1429 0 0 27.8571 0 0 
        </DataArray>
      </Points>
      <Cells>
        <DataArray type="Int32" Name="connectivity" format="ascii">
          8 9 35 26 27 35 8 35 40 27 41 35 30 42 37 32 36 42 33 40 35 33 35 41 29 30 37 6 36 32 30 31 42 31 32 42 0 6 32 30 29 1 26 35 38 9 38 35 6 7 36 28 29 37 7 40 36 33 41 37 33 36 40 28 37 41 9 10 38 25 26 38 33 42 36 33 37 42 11 34 24 24 25 39 10 11 39 25 38 39 10 39 38 11 24 39 27 28 41 7 8 40 2 34 11 3 24 34 2 3 34 2 44 12 3 23 44 4 17 43 5 43 18 12 46 13 13 48 14 14 45 15 15 49 16 16 47 17 18 47 19 19 49 20 20 45 21 21 48 22 22 46 23 2 3 44 4 43 5 12 44 23 12 23 46 13 46 22 13 22 48 14 21 45 14 48 21 15 45 20 15 20 49 16 19 47 16 49 19 17 18 43 17 47 18 
        </DataArray>
        <DataArray type="Int32" Name="offsets" format="ascii">
          3 6 9 12 15 18 21 24 27 30 33 36 39 42 45 48 51 54 57 60 63 66 69 72 75 78 81 84 87 90 93 96 99 102 105 108 111 114 117 120 123 126 129 132 135 138 141 144 147 150 153 156 159 162 165 168 171 174 177 180 183 186 189 192 195 
        </DataArray>
        <DataArray type="UInt8" Name="types" format="ascii">
          5 5 5 5 5 5 5 5 5 5 5 5 5 5 5 5 5 5 5 5 5 5 5 5 5 5 5 5 5 5 5 5 5 5 5 5 5 5 5 5 5 5 5 5 5 5 5 5 5 5 5 5 5 5 5 5 5 5 5 5 5 5 5 5 5 
        </DataArray>
      </Cells>
      <CellData>
        <DataArray type="Float32" Name="F0_Alpha_SG_co2liq_mod.xml" format="ascii">
1.72637e-10 1.72654e-10 1.72394e-10 1.72535e-10 1.65329e-10 1.65315e-10 1.70803e-10 1.70677e-10 1.64593e-10 1.64394e-10 1.67735e-10 1.67735e-10 1.63267e-10 1.63565e-10 1.72682e-10 1.72678e-10 1.64629e-10 1.63828e-10 1.66748e-10 1.66814e-10 1.66862e-10 1.66738e-10 1.72682e-10 1.72682e-10 1.65988e-10 1.66006e-10 1.72682e-10 1.72682e-10 1.72682e-10 1.72682e-10 1.72682e-10 1.72682e-10 1.71296e-10 1.71144e-10 1.72682e-10 1.72682e-10 1.72682e-10 1.72682e-10 1.72682e-10 1.73237e-10 1.73237e-10 1.72682e-10 1.72682e-10 1.72683e-10 1.72694e-10 1.72812e-10 1.72811e-10 1.72694e-10 1.72683e-10 1.72682e-10 1.72682e-10 1.72682e-10 1.73284e-10 1.72682e-10 1.72682e-10 1.72682e-10 1.72682e-10 1.72682e-10 1.72682e-10 1.72683e-10 1.72689e-10 1.72774e-10 1.72701e-10 1.73149e-10 1.72852e-10 
        </DataArray>
        <DataArray type="Float32" Name="F0_Density_SG_co2liq_mod.xml" format="ascii">
5899.95 5898.88 5914.99 5906.34 6462.84 6463.61 6007.78 6014.85 6506.53 6519.08 6343.87 6343.84 6634.49 6614.74 5897.1 5897.41 6419.45 6469.21 6241.09 6258.31 6255.63 6243.28 5897.13 5897.13 6353.41 6352.24 5897.13 5897.13 5897.13 5897.13 5897.12 5897.13 5977.93 5986.05 5897.13 5897.13 5897.13 5897.13 5897.13 5859.6 5859.6 5897.13 5897.13 5897.09 5896.35 5888.78 5888.81 5896.34 5897.09 5897.13 5897.13 5897.13 5852.47 5897.13 5897.13 5897.13 5897.13 5897.11 5897.13 5897.06 5896.66 5891.24 5895.91 5865.96 5886.12 
        </DataArray>
        <DataArray type="Float32" Name="F0_Temperature_SG_co2liq_mod.xml" format="ascii">
41.7894 41.7861 41.8331 41.8086 42.4065 42.4068 42.0289 42.0404 42.4234 42.4279 42.3497 42.3497 42.4636 42.4582 41.7806 41.7816 42.3877 42.409 42.2842 42.2965 42.2946 42.2858 41.7807 41.7807 42.355 42.3543 41.7807 41.7807 41.7807 41.7807 41.7807 41.7807 41.9762 41.9913 41.7807 41.7807 41.7807 41.7807 41.7807 41.6397 41.6397 41.7807 41.7807 41.7806 41.7782 41.7535 41.7536 41.7782 41.7806 41.7807 41.7807 41.7807 41.6058 41.7807 41.7807 41.7807 41.7807 41.7806 41.7807 41.7805 41.7792 41.7617 41.7768 41.6676 41.7444 
        </DataArray>
        <DataArray type="Float32" Name="F0_Mass fraction_SG_co2liq_mod.xml" format="ascii">
9.47796e-09 9.52146e-09 8.91935e-09 9.22963e-09 2.57915e-09 2.57756e-09 6.70302e-09 6.58764e-09 2.48505e-09 2.4573e-09 2.78501e-09 2.7851e-09 2.12581e-09 2.15966e-09 9.59548e-09 9.58245e-09 3.06161e-09 2.90169e-09 4.26505e-09 3.96034e-09 3.97427e-09 4.23452e-09 9.59454e-09 9.59461e-09 3.20644e-09 3.21141e-09 9.5944e-09 9.5944e-09 9.59442e-09 9.59439e-09 9.59469e-09 9.5944e-09 7.3093e-09 7.16347e-09 9.5944e-09 9.5944e-09 9.5944e-09 9.5944e-09 9.5944e-09 1.16445e-08 1.16442e-08 9.5944e-09 9.59444e-09 9.5959e-09 9.62752e-09 9.96386e-09 9.96244e-09 9.62764e-09 9.59593e-09 9.59444e-09 9.5944e-09 9.5944e-09 1.24289e-08 9.5944e-09 9.5944e-09 9.5944e-09 9.59442e-09 9.59515e-09 9.59448e-09 9.59721e-09 9.61402e-09 9.85114e-09 9.64606e-09 1.12098e-08 1.00917e-08 
        </DataArray>
        <DataArray type="Float32" Name="F1_Alpha_SG_co2gas_mod.xml" format="ascii">
1 1 1 1 1 1 1 1 1 1 1 1 1 1 1 1 1 1 1 1 1 1 1 1 1 1 1 1 1 1 1 1 1 1 1 1 1 1 1 1 1 1 1 1 1 1 1 1 1 1 1 1 1 1 1 1 1 1 1 1 1 1 1 1 1 
        </DataArray>
        <DataArray type="Float32" Name="F1_Density_SG_co2gas_mod.xml" format="ascii">
107.465 106.966 114.326 110.411 414.281 414.552 153.087 155.837 430.95 436.127 382.077 382.063 509.543 500.977 106.126 106.273 345.187 365.249 244.004 263.607 262.646 245.834 106.136 106.135 328.898 328.364 106.138 106.138 106.137 106.138 106.135 106.138 140.095 143.014 106.138 106.138 106.138 106.138 106.138 87.1743 87.1765 106.138 106.137 106.121 105.766 102.134 102.149 105.765 106.121 106.137 106.138 106.138 81.595 106.138 106.138 106.138 106.138 106.129 106.137 106.106 105.917 103.323 105.559 90.6071 100.818 
        </DataArray>
        <DataArray type="Float32" Name="F1_Temperature_SG_co2gas_mod.xml" format="ascii">
466.747 466.606 468.848 467.672 378.799 378.873 478.365 479.035 381.823 382.292 355.823 355.822 366.309 365.799 466.382 466.421 432.578 432.695 481.436 457.487 457.314 479.471 466.385 466.385 418.517 418.563 466.385 466.385 466.385 466.385 466.384 466.385 479.238 481.156 466.385 466.385 466.385 466.385 466.385 461.251 461.252 466.385 466.385 466.381 466.287 465.325 465.327 466.287 466.381 466.385 466.385 466.385 469.224 466.385 466.385 466.385 466.385 466.383 466.385 466.377 466.327 465.638 466.235 462.14 465.069 
        </DataArray>
        <DataArray type="Float32" Name="F1_Mass fraction_SG_co2gas_mod.xml" format="ascii">
1 1 1 1 1 1 1 1 1 1 1 1 1 1 1 1 1 1 1 1 1 1 1 1 1 1 1 1 1 1 1 1 1 1 1 1 1 1 1 1 1 1 1 1 1 1 1 1 1 1 1 1 1 1 1 1 1 1 1 1 1 1 1 1 1 
        </DataArray>
        <DataArray type="Float32" Name="Density_Mixture" format="ascii">
107.465 106.966 114.326 110.411 414.281 414.552 153.087 155.837 430.95 436.127 382.077 382.063 509.543 500.977 106.126 106.273 345.187 365.249 244.004 263.607 262.646 245.834 106.136 106.135 328.898 328.364 106.138 106.138 106.137 106.138 106.135 106.138 140.095 143.014 106.138 106.138 106.138 106.138 106.138 87.1743 87.1765 106.138 106.137 106.121 105.766 102.134 102.149 105.765 106.121 106.137 106.138 106.138 81.595 106.138 106.138 106.138 106.138 106.129 106.137 106.106 105.917 103.323 105.559 90.6071 100.818 
        </DataArray>
        <DataArray type="Float32" Name="Pressure_Mixture" format="ascii">
6.36701e+06 6.3311e+06 6.86475e+06 6.58056e+06 2.1806e+07 2.18253e+07 9.7033e+06 9.90859e+06 2.29074e+07 2.32229e+07 1.87726e+07 1.87719e+07 2.61036e+07 2.5613e+07 6.27099e+06 6.2815e+06 2.07057e+07 2.19668e+07 1.61005e+07 1.65523e+07 1.64821e+07 1.6158e+07 6.27174e+06 6.27169e+06 1.90181e+07 1.8988e+07 6.27186e+06 6.27186e+06 6.27184e+06 6.27186e+06 6.27163e+06 6.27186e+06 8.82228e+06 9.06423e+06 6.27186e+06 6.27186e+06 6.27186e+06 6.27186e+06 6.27186e+06 4.92826e+06 4.92842e+06 6.27186e+06 6.27183e+06 6.27065e+06 6.2453e+06 5.98619e+06 5.98722e+06 6.2452e+06 6.27063e+06 6.27183e+06 6.27186e+06 6.27186e+06 4.65021e+06 6.27186e+06 6.27186e+06 6.27186e+06 6.27185e+06 6.27126e+06 6.27179e+06 6.2696e+06 6.2561e+06 6.07089e+06 6.23054e+06 5.16886e+06 5.89391e+06 
        </DataArray>
        <DataArray type="Float32" Name="Velocity_Mixture" NumberOfComponents="3" format="ascii">
3.54033 -0.0499994 0 1.56287 0.369105 0 17.5542 -1.13069 0 10.2022 -6.70304 0 317.859 8.23988 0 318.982 -9.85607 0 109.879 -7.00968 0 115.138 6.40992 0 308.425 43.6634 0 307.283 -42.7095 0 342.848 0.115991 0 342.849 -0.114683 0 296.36 -43.7244 0 297.726 46.2905 0 -0.0303217 -0.0793401 0 0.291991 -0.180082 0 271.279 -52.4972 0 271.812 74.6502 0 221.459 -34.1574 0 235.725 2.74824 0 236.128 0.113669 0 204.654 59.179 0 -0.0196931 -0.0155393 0 -0.00291092 -0.00106038 0 275.335 -19.8396 0 275.982 22.1096 0 0 0 0 1.48412e-05 0 0 -0.000622381 -0.000192 0 0.000498583 0.00136675 0 -0.00642837 0.00513925 0 0 6.49043e-06 0 59.9812 20.6155 0 88.5966 -4.36286 0 0 0 0 0 0 0 0 0 0 0 0 0 0 0 0 18.041 -0.963195 0 18.0424 0.967774 0 0 0 0 0.000161578 -0.00019526 0 0.00805679 -0.00600444 0 0.195534 -0.0902104 0 2.46884 -0.559029 0 2.52861 0.536147 0 0.206592 0.0866975 0 0.00873371 0.00584373 0 0.000185113 0.000191636 0 0 0 0 0 0 0 59.489 0.00519217 0 0 0 0 0 0 0 3.72271e-05 0 0 0.000101388 5.31221e-07 0 0.00672782 0.000858926 0 0.00390139 -0.000121939 0 0.139876 -0.00394778 0 0.206713 0.0189489 0 3.40946 0.173144 0 2.62356 -0.0607055 0 29.2985 -0.00674744 0 22.969 -0.287549 0 
        </DataArray>
        <DataArray type="Float32" Name="gradRho" format="ascii">
2.17048 1.12932 11.799 11.9411 24.8663 25.8271 49.7307 50.4891 41.3416 51.2213 22.3673 22.5629 17.3328 16.5327 0.204168 0.393057 50.5365 46.5189 68.393 57.4758 58.5888 75.3657 0.0465505 0.00387774 50.5206 50.1072 4.0229e-06 2.13954e-05 0.00114033 0.00130327 0.00137074 0.000120286 40.7638 38.9798 5.46721e-08 6.03884e-08 8.48992e-09 1.68926e-08 1.42413e-08 0.852903 0.853653 2.27604e-06 8.60199e-05 0.00229778 0.0295435 0.183512 0.185023 0.0292143 0.00221487 8.20826e-05 1.94908e-06 5.66857e-09 0.804556 5.56179e-07 8.67148e-07 5.56847e-05 7.90529e-05 0.0034526 0.00266714 0.0675179 0.0807129 0.896206 0.802418 3.9037 3.70106 
        </DataArray>
      </CellData>
    </Piece>
  </UnstructuredGrid>
</VTKFile>
