<?xml version="1.0"?>
<VTKFile type="UnstructuredGrid" version="0.1" byte_order="LittleEndian">
  <UnstructuredGrid>
    <Piece NumberOfPoints="50" NumberOfCells="65">
      <Points>
        <DataArray type="Float32" NumberOfComponents="3" format="ascii">
          0 5 0 0 -5 0 15 0.2 0 15 -0.2 0 35 0.2 0 35 -0.2 0 2.14286 4.31429 0 4.28571 3.62857 0 6.42857 2.94286 0 8.57143 2.25714 0 10.7143 1.57143 0 12.8571 0.885714 0 17.8571 0.2 0 20.7143 0.2 0 23.5714 0.2 0 26.4286 0.2 0 29.2857 0.2 0 32.1429 0.2 0 32.1429 -0.2 0 29.2857 -0.2 0 26.4286 -0.2 0 23.5714 -0.2 0 20.7143 -0.2 0 17.8571 -0.2 0 12.8571 -0.885714 0 10.7143 -1.57143 0 8.57143 -2.25714 0 6.42857 -2.94286 0 4.28571 -3.62857 0 2.14286 -4.31429 0 0 -2.5 0 0 -6.16307e-12 0 0 2.5 0 3.95974 -5.7158e-13 0 13.9286 -3.66374e-15 0 6.61813 2.81487e-12 0 2.86365 2.0434 0 2.86365 -2.0434 0 9.43036 1.987e-12 0 11.3926 2.79508e-14 0 4.83116 1.72297 0 4.83116 -1.72297 0 1.90629 -3.21031e-12 0 33.5714 0 0 16.4286 -1.80625e-18 0 25 6.93889e-18 0 19.2857 -6.93889e-18 0 30.7143 0 0 22.1429 0 0 27.8571 0 0 
        </DataArray>
      </Points>
      <Cells>
        <DataArray type="Int32" Name="connectivity" format="ascii">
          8 9 35 26 27 35 8 35 40 27 41 35 30 42 37 32 36 42 33 40 35 33 35 41 29 30 37 6 36 32 30 31 42 31 32 42 0 6 32 30 29 1 26 35 38 9 38 35 6 7 36 28 29 37 7 40 36 33 41 37 33 36 40 28 37 41 9 10 38 25 26 38 33 42 36 33 37 42 11 34 24 24 25 39 10 11 39 25 38 39 10 39 38 11 24 39 27 28 41 7 8 40 2 34 11 3 24 34 2 3 34 2 44 12 3 23 44 4 17 43 5 43 18 12 46 13 13 48 14 14 45 15 15 49 16 16 47 17 18 47 19 19 49 20 20 45 21 21 48 22 22 46 23 2 3 44 4 43 5 12 44 23 12 23 46 13 46 22 13 22 48 14 21 45 14 48 21 15 45 20 15 20 49 16 19 47 16 49 19 17 18 43 17 47 18 
        </DataArray>
        <DataArray type="Int32" Name="offsets" format="ascii">
          3 6 9 12 15 18 21 24 27 30 33 36 39 42 45 48 51 54 57 60 63 66 69 72 75 78 81 84 87 90 93 96 99 102 105 108 111 114 117 120 123 126 129 132 135 138 141 144 147 150 153 156 159 162 165 168 171 174 177 180 183 186 189 192 195 
        </DataArray>
        <DataArray type="UInt8" Name="types" format="ascii">
          5 5 5 5 5 5 5 5 5 5 5 5 5 5 5 5 5 5 5 5 5 5 5 5 5 5 5 5 5 5 5 5 5 5 5 5 5 5 5 5 5 5 5 5 5 5 5 5 5 5 5 5 5 5 5 5 5 5 5 5 5 5 5 5 5 
        </DataArray>
      </Cells>
      <CellData>
        <DataArray type="Float32" Name="F0_Alpha_SG_co2liq_mod.xml" format="ascii">
1.68031e-10 1.67356e-10 1.64135e-10 1.64562e-10 1.65008e-10 1.64915e-10 1.63705e-10 1.63382e-10 1.63208e-10 1.63177e-10 1.67784e-10 1.67784e-10 1.60503e-10 1.60804e-10 1.7178e-10 1.71318e-10 1.62219e-10 1.625e-10 1.61695e-10 1.62336e-10 1.62958e-10 1.61191e-10 1.72573e-10 1.72712e-10 1.63714e-10 1.63709e-10 1.72682e-10 1.72682e-10 1.72688e-10 1.7269e-10 1.72688e-10 1.72683e-10 1.61731e-10 1.61695e-10 1.72682e-10 1.72682e-10 1.72682e-10 1.72682e-10 1.72682e-10 1.73387e-10 1.73387e-10 1.72682e-10 1.72683e-10 1.72693e-10 1.72764e-10 1.73015e-10 1.73015e-10 1.72764e-10 1.72693e-10 1.72683e-10 1.72682e-10 1.72682e-10 1.73414e-10 1.72682e-10 1.72682e-10 1.72682e-10 1.72683e-10 1.72689e-10 1.72683e-10 1.72698e-10 1.72742e-10 1.72953e-10 1.72788e-10 1.73324e-10 1.73072e-10 
        </DataArray>
        <DataArray type="Float32" Name="F0_Density_SG_co2liq_mod.xml" format="ascii">
6160.77 6196.93 6381.23 6359.63 6524.2 6529.5 6474.09 6494.72 6645.9 6647.76 6347.84 6347.82 6837.29 6816.6 5951.12 5977.84 6669.13 6653.62 6651.94 6623.61 6589 6679.9 5903.99 5895.21 6567.43 6567.16 5897.13 5897.11 5896.73 5896.62 5896.78 5897.04 6569.23 6568.53 5897.13 5897.13 5897.13 5897.13 5897.13 5848.16 5848.16 5897.13 5897.07 5896.42 5891.86 5875.26 5875.26 5891.87 5896.42 5897.07 5897.13 5897.13 5842.33 5897.13 5897.13 5897.12 5897.1 5896.66 5897.04 5896.12 5893.29 5879.48 5890.32 5853.19 5871.27 
        </DataArray>
        <DataArray type="Float32" Name="F0_Temperature_SG_co2liq_mod.xml" format="ascii">
42.2178 42.2497 42.3694 42.3583 42.4297 42.4315 42.411 42.419 42.4666 42.4671 42.3519 42.3519 42.5059 42.5025 41.9216 41.976 42.4724 42.4686 42.4681 42.4606 42.4507 42.475 41.8017 41.7746 42.4441 42.444 41.7807 41.7806 41.7794 41.7791 41.7796 41.7804 42.4447 42.4444 41.7807 41.7807 41.7807 41.7807 41.7807 41.5836 41.5836 41.7807 41.7805 41.7784 41.7637 41.705 41.7049 41.7638 41.7784 41.7805 41.7807 41.7807 41.5512 41.7807 41.7807 41.7807 41.7806 41.7792 41.7804 41.7775 41.7684 41.7208 41.7586 41.6093 41.6894 
        </DataArray>
        <DataArray type="Float32" Name="F0_Mass fraction_SG_co2liq_mod.xml" format="ascii">
4.94185e-09 4.67886e-09 3.62813e-09 3.69937e-09 2.32073e-09 2.31188e-09 2.89939e-09 2.83653e-09 2.09089e-09 2.08827e-09 2.74655e-09 2.74662e-09 1.80825e-09 1.8335e-09 7.87999e-09 7.27694e-09 2.14398e-09 2.16335e-09 2.301e-09 2.3197e-09 2.37309e-09 2.26167e-09 9.31737e-09 9.67602e-09 2.34129e-09 2.34359e-09 9.59427e-09 9.59544e-09 9.61116e-09 9.61589e-09 9.60931e-09 9.59798e-09 2.75149e-09 2.76549e-09 9.59434e-09 9.59438e-09 9.5944e-09 9.5944e-09 9.5944e-09 1.25608e-08 1.25607e-08 9.59453e-09 9.59686e-09 9.62455e-09 9.82337e-09 1.06528e-08 1.06529e-08 9.82282e-09 9.6246e-09 9.59687e-09 9.59453e-09 9.5944e-09 1.3367e-08 9.59441e-09 9.59447e-09 9.59463e-09 9.59586e-09 9.61429e-09 9.59827e-09 9.63703e-09 9.75957e-09 1.04234e-08 9.89316e-09 1.21291e-08 1.08879e-08 
        </DataArray>
        <DataArray type="Float32" Name="F1_Alpha_SG_co2gas_mod.xml" format="ascii">
1 1 1 1 1 1 1 1 1 1 1 1 1 1 1 1 1 1 1 1 1 1 1 1 1 1 1 1 1 1 1 1 1 1 1 1 1 1 1 1 1 1 1 1 1 1 1 1 1 1 1 1 1 1 1 1 1 1 1 1 1 1 1 1 1 
        </DataArray>
        <DataArray type="Float32" Name="F1_Density_SG_co2gas_mod.xml" format="ascii">
209.476 221.656 288.684 282.901 463.881 465.774 365.539 374.091 518.758 519.454 387.782 387.772 606.89 597.838 129.732 140.734 504.602 499.787 467.441 463.528 452.462 476.082 109.352 105.227 459.226 458.741 106.139 106.126 105.949 105.896 105.97 106.097 386.136 384.055 106.138 106.138 106.138 106.138 106.138 80.7274 80.7278 106.136 106.11 105.799 103.62 95.4217 95.4207 103.626 105.799 106.11 106.136 106.138 75.7944 106.138 106.137 106.135 106.121 105.914 106.094 105.66 104.31 97.5563 102.877 83.6416 93.3288 
        </DataArray>
        <DataArray type="Float32" Name="F1_Temperature_SG_co2gas_mod.xml" format="ascii">
490.283 493.531 493.899 490.463 361.334 361.839 434.683 434.363 363.577 363.704 352.409 352.408 364.471 364.133 474.14 476.936 381.662 380.024 405.707 398.64 395.223 408.397 467.249 466.148 381.298 381.597 466.386 466.382 466.336 466.322 466.343 466.375 454.276 456.425 466.386 466.385 466.385 466.385 466.385 459.417 459.417 466.385 466.378 466.296 465.719 463.508 463.502 465.72 466.296 466.378 466.385 466.385 467.215 466.385 466.385 466.385 466.381 466.326 466.374 466.26 465.901 464.072 465.543 460.088 463.17 
        </DataArray>
        <DataArray type="Float32" Name="F1_Mass fraction_SG_co2gas_mod.xml" format="ascii">
1 1 1 1 1 1 1 1 1 1 1 1 1 1 1 1 1 1 1 1 1 1 1 1 1 1 1 1 1 1 1 1 1 1 1 1 1 1 1 1 1 1 1 1 1 1 1 1 1 1 1 1 1 1 1 1 1 1 1 1 1 1 1 1 1 
        </DataArray>
        <DataArray type="Float32" Name="Density_Mixture" format="ascii">
209.476 221.656 288.684 282.901 463.881 465.774 365.539 374.091 518.758 519.454 387.782 387.772 606.89 597.838 129.732 140.734 504.602 499.787 467.441 463.528 452.462 476.082 109.352 105.227 459.226 458.741 106.139 106.126 105.949 105.896 105.97 106.097 386.136 384.055 106.138 106.138 106.138 106.138 106.138 80.7274 80.7278 106.136 106.11 105.799 103.62 95.4217 95.4207 103.626 105.799 106.11 106.136 106.138 75.7944 106.138 106.137 106.135 106.121 105.914 106.094 105.66 104.31 97.5563 102.877 83.6416 93.3288 
        </DataArray>
        <DataArray type="Float32" Name="Pressure_Mixture" format="ascii">
1.39648e+07 1.49324e+07 1.97312e+07 1.91776e+07 2.33513e+07 2.34842e+07 2.209e+07 2.26103e+07 2.63868e+07 2.64329e+07 1.88747e+07 1.88742e+07 3.10986e+07 3.05923e+07 8.00849e+06 8.81969e+06 2.69622e+07 2.6578e+07 2.65365e+07 2.58333e+07 2.49719e+07 2.72287e+07 6.50227e+06 6.2068e+06 2.44337e+07 2.44269e+07 6.27196e+06 6.27102e+06 6.25839e+06 6.2546e+06 6.2599e+06 6.26897e+06 2.44786e+07 2.44613e+07 6.27191e+06 6.27187e+06 6.27186e+06 6.27185e+06 6.27185e+06 4.47685e+06 4.47688e+06 6.27175e+06 6.26988e+06 6.24767e+06 6.09211e+06 5.50948e+06 5.50933e+06 6.09253e+06 6.24763e+06 6.26987e+06 6.27175e+06 6.27186e+06 4.23462e+06 6.27185e+06 6.2718e+06 6.27168e+06 6.27068e+06 6.25588e+06 6.26874e+06 6.23772e+06 6.14128e+06 5.6605e+06 6.03941e+06 4.67857e+06 5.36464e+06 
        </DataArray>
        <DataArray type="Float32" Name="Velocity_Mixture" NumberOfComponents="3" format="ascii">
197.897 -29.0113 0 184.315 53.9955 0 252.722 -40.8098 0 256.69 44.553 0 320.608 30.6929 0 320.323 -32.306 0 293.382 -16.8407 0 294.672 27.6533 0 302.591 51.6906 0 302.765 -52.3284 0 343.796 0.0555266 0 343.8 -0.0525794 0 270.293 -42.8979 0 271.646 46.2562 0 45.529 11.2688 0 81.0388 -22.2939 0 292.733 -72.0645 0 296.973 76.837 0 295.469 -73.2453 0 290.535 46.5971 0 298.929 -40.7136 0 289.936 86.3791 0 6.16906 -0.782844 0 -1.86925 0.541571 0 306.14 -17.7576 0 305.463 16.8761 0 0.00349037 -0.00100671 0 -0.00880664 0.00992826 0 -0.432459 -0.0124976 0 -0.467712 0.0957428 0 -0.331252 0.480704 0 -0.0763051 0.0957537 0 287.07 87.7961 0 288.436 -74.0669 0 0.00116562 0.000235651 0 0.000304406 -6.38439e-05 0 2.12947e-05 -0.00021537 0 0 -1.81329e-05 0 0 1.9509e-05 0 37.2708 -0.567748 0 37.2751 0.56946 0 0.000692518 -0.000454453 0 0.014698 -0.00683748 0 0.196895 -0.0612456 0 1.70364 -0.295987 0 9.54013 -0.675324 0 9.52954 0.663402 0 1.72124 0.286301 0 0.204669 0.0586804 0 0.0155234 0.00659846 0 0.000751172 0.00044387 0 0 0 0 73.4726 0.00221929 0 0.000400798 0 0 0.000645388 6.43334e-05 0 0.0112831 -0.000291527 0 0.0161403 0.00133143 0 0.255156 0.0148852 0 0.194994 -0.0045231 0 2.10899 -0.0410214 0 2.56702 0.0622523 0 16.0248 0.040205 0 13.4539 -0.0797013 0 59.201 -0.00186836 0 46.191 -0.044181 0 
        </DataArray>
        <DataArray type="Float32" Name="gradRho" format="ascii">
34.3524 33.4055 51.2653 48.0542 33.9332 33.9153 50.6804 53.996 40.3921 41.5193 52.8527 54.1725 20.6427 18.6698 31.4244 30.1141 12.7535 11.0975 45.7916 31.3479 33.8476 44.5414 11.3877 8.15072 4.42465 0.672803 0.0178874 0.0830448 0.0378897 0.329052 1.19723 0.0784454 47.4913 43.9664 0.000357344 0.000558927 0.000335788 9.39542e-06 7.68414e-06 0.768176 0.768312 0.000169139 0.0023096 0.0193924 0.104251 0.304941 0.304958 0.104703 0.0193056 0.00226931 0.000163599 2.05635e-05 0.711228 0.000240324 0.000301468 0.00495674 0.00593832 0.0740288 0.0644822 0.485912 0.538514 2.06735 1.9339 3.6706 3.59163 
        </DataArray>
      </CellData>
    </Piece>
  </UnstructuredGrid>
</VTKFile>
