<?xml version="1.0"?>
<VTKFile type="UnstructuredGrid" version="0.1" byte_order="LittleEndian">
  <UnstructuredGrid>
    <Piece NumberOfPoints="50" NumberOfCells="65">
      <Points>
        <DataArray type="Float32" NumberOfComponents="3" format="ascii">
          0 5 0 0 -5 0 15 0.2 0 15 -0.2 0 35 0.2 0 35 -0.2 0 2.14286 4.31429 0 4.28571 3.62857 0 6.42857 2.94286 0 8.57143 2.25714 0 10.7143 1.57143 0 12.8571 0.885714 0 17.8571 0.2 0 20.7143 0.2 0 23.5714 0.2 0 26.4286 0.2 0 29.2857 0.2 0 32.1429 0.2 0 32.1429 -0.2 0 29.2857 -0.2 0 26.4286 -0.2 0 23.5714 -0.2 0 20.7143 -0.2 0 17.8571 -0.2 0 12.8571 -0.885714 0 10.7143 -1.57143 0 8.57143 -2.25714 0 6.42857 -2.94286 0 4.28571 -3.62857 0 2.14286 -4.31429 0 0 -2.5 0 0 -6.16307e-12 0 0 2.5 0 3.95974 -5.7158e-13 0 13.9286 -3.66374e-15 0 6.61813 2.81487e-12 0 2.86365 2.0434 0 2.86365 -2.0434 0 9.43036 1.987e-12 0 11.3926 2.79508e-14 0 4.83116 1.72297 0 4.83116 -1.72297 0 1.90629 -3.21031e-12 0 33.5714 0 0 16.4286 -1.80625e-18 0 25 6.93889e-18 0 19.2857 -6.93889e-18 0 30.7143 0 0 22.1429 0 0 27.8571 0 0 
        </DataArray>
      </Points>
      <Cells>
        <DataArray type="Int32" Name="connectivity" format="ascii">
          8 9 35 26 27 35 8 35 40 27 41 35 30 42 37 32 36 42 33 40 35 33 35 41 29 30 37 6 36 32 30 31 42 31 32 42 0 6 32 30 29 1 26 35 38 9 38 35 6 7 36 28 29 37 7 40 36 33 41 37 33 36 40 28 37 41 9 10 38 25 26 38 33 42 36 33 37 42 11 34 24 24 25 39 10 11 39 25 38 39 10 39 38 11 24 39 27 28 41 7 8 40 2 34 11 3 24 34 2 3 34 2 44 12 3 23 44 4 17 43 5 43 18 12 46 13 13 48 14 14 45 15 15 49 16 16 47 17 18 47 19 19 49 20 20 45 21 21 48 22 22 46 23 2 3 44 4 43 5 12 44 23 12 23 46 13 46 22 13 22 48 14 21 45 14 48 21 15 45 20 15 20 49 16 19 47 16 49 19 17 18 43 17 47 18 
        </DataArray>
        <DataArray type="Int32" Name="offsets" format="ascii">
          3 6 9 12 15 18 21 24 27 30 33 36 39 42 45 48 51 54 57 60 63 66 69 72 75 78 81 84 87 90 93 96 99 102 105 108 111 114 117 120 123 126 129 132 135 138 141 144 147 150 153 156 159 162 165 168 171 174 177 180 183 186 189 192 195 
        </DataArray>
        <DataArray type="UInt8" Name="types" format="ascii">
          5 5 5 5 5 5 5 5 5 5 5 5 5 5 5 5 5 5 5 5 5 5 5 5 5 5 5 5 5 5 5 5 5 5 5 5 5 5 5 5 5 5 5 5 5 5 5 5 5 5 5 5 5 5 5 5 5 5 5 5 5 5 5 5 5 
        </DataArray>
      </Cells>
      <CellData>
        <DataArray type="Float32" Name="F0_Alpha_SG_co2liq_mod.xml" format="ascii">
1.72681e-10 1.72682e-10 1.72671e-10 1.72678e-10 1.65875e-10 1.66001e-10 1.72467e-10 1.72464e-10 1.65956e-10 1.65609e-10 1.67742e-10 1.67742e-10 1.64672e-10 1.64943e-10 1.72682e-10 1.72682e-10 1.68365e-10 1.67219e-10 1.71221e-10 1.70555e-10 1.70466e-10 1.71564e-10 1.72682e-10 1.72682e-10 1.68297e-10 1.68276e-10 1.72682e-10 1.72682e-10 1.72682e-10 1.72682e-10 1.72682e-10 1.72682e-10 1.72679e-10 1.72583e-10 1.72682e-10 1.72682e-10 1.72682e-10 1.72682e-10 1.72682e-10 1.73127e-10 1.73127e-10 1.72682e-10 1.72682e-10 1.72682e-10 1.72685e-10 1.72741e-10 1.72741e-10 1.72685e-10 1.72682e-10 1.72682e-10 1.72682e-10 1.72682e-10 1.73189e-10 1.72682e-10 1.72682e-10 1.72682e-10 1.72682e-10 1.72682e-10 1.72682e-10 1.72682e-10 1.72683e-10 1.72719e-10 1.72687e-10 1.73033e-10 1.72769e-10 
        </DataArray>
        <DataArray type="Float32" Name="F0_Density_SG_co2liq_mod.xml" format="ascii">
5897.18 5897.15 5897.81 5897.38 6401.36 6393.57 5910.45 5910.61 6379.87 6400.05 6332.88 6332.9 6526.01 6508.37 5897.13 5897.13 6160.23 6229.07 5983.28 6023.02 6028.11 5962.8 5897.13 5897.13 6166.2 6167.08 5897.13 5897.13 5897.13 5897.13 5897.13 5897.13 5897.28 5903.34 5897.13 5897.13 5897.13 5897.13 5897.13 5867.5 5867.5 5897.13 5897.13 5897.13 5896.95 5893.34 5893.34 5896.95 5897.13 5897.13 5897.13 5897.13 5859.76 5897.13 5897.13 5897.13 5897.13 5897.13 5897.13 5897.12 5897.05 5894.78 5896.8 5874.03 5891.52 
        </DataArray>
        <DataArray type="Float32" Name="F0_Temperature_SG_co2liq_mod.xml" format="ascii">
41.7808 41.7807 41.7828 41.7815 42.3793 42.3755 41.8205 41.8209 42.3687 42.3787 42.3436 42.3436 42.4303 42.424 41.7807 41.7807 42.2173 42.2753 41.9862 42.0532 42.0609 41.9464 41.7807 41.7807 42.2228 42.2236 41.7807 41.7807 41.7807 41.7807 41.7807 41.7807 41.7811 41.7997 41.7807 41.7807 41.7807 41.7807 41.7807 41.674 41.674 41.7807 41.7807 41.7807 41.7801 41.7686 41.7686 41.7801 41.7807 41.7807 41.7807 41.7807 41.6404 41.7807 41.7807 41.7807 41.7807 41.7807 41.7807 41.7806 41.7804 41.7732 41.7796 41.7002 41.7626 
        </DataArray>
        <DataArray type="Float32" Name="F0_Mass fraction_SG_co2liq_mod.xml" format="ascii">
9.59225e-09 9.59365e-09 9.5658e-09 9.58375e-09 2.84877e-09 2.87231e-09 9.08188e-09 9.07619e-09 2.98936e-09 2.9302e-09 2.86052e-09 2.86048e-09 2.37047e-09 2.4088e-09 9.59441e-09 9.59434e-09 4.69847e-09 4.18507e-09 7.16992e-09 6.42799e-09 6.34971e-09 7.6298e-09 9.5944e-09 9.5944e-09 4.62614e-09 4.62329e-09 9.5944e-09 9.5944e-09 9.5944e-09 9.5944e-09 9.5944e-09 9.5944e-09 9.58854e-09 9.34564e-09 9.5944e-09 9.5944e-09 9.5944e-09 9.5944e-09 9.5944e-09 1.11137e-08 1.11135e-08 9.5944e-09 9.5944e-09 9.59455e-09 9.60183e-09 9.75733e-09 9.75747e-09 9.60194e-09 9.59456e-09 9.5944e-09 9.5944e-09 9.5944e-09 1.18391e-08 9.5944e-09 9.5944e-09 9.5944e-09 9.5944e-09 9.59446e-09 9.5944e-09 9.59476e-09 9.59796e-09 9.69444e-09 9.6085e-09 1.07222e-08 9.8393e-09 
        </DataArray>
        <DataArray type="Float32" Name="F1_Alpha_SG_co2gas_mod.xml" format="ascii">
1 1 1 1 1 1 1 1 1 1 1 1 1 1 1 1 1 1 1 1 1 1 1 1 1 1 1 1 1 1 1 1 1 1 1 1 1 1 1 1 1 1 1 1 1 1 1 1 1 1 1 1 1 1 1 1 1 1 1 1 1 1 1 1 1 
        </DataArray>
        <DataArray type="Float32" Name="F1_Density_SG_co2gas_mod.xml" format="ascii">
106.162 106.146 106.461 106.258 372.732 369.507 112.241 112.313 354.182 361.717 371.364 371.37 453.351 445.661 106.138 106.138 220.746 248.889 142.884 159.81 161.832 134.08 106.138 106.138 224.324 224.466 106.138 106.138 106.138 106.138 106.138 106.138 106.204 109.015 106.138 106.138 106.138 106.138 106.138 91.4031 91.4041 106.138 106.138 106.136 106.054 104.334 104.333 106.053 106.136 106.138 106.138 106.138 85.7197 106.138 106.138 106.138 106.138 106.137 106.138 106.134 106.098 105.023 105.979 94.7946 103.45 
        </DataArray>
        <DataArray type="Float32" Name="F1_Temperature_SG_co2gas_mod.xml" format="ascii">
466.392 466.388 466.472 466.418 392.068 391.769 468.407 468.422 401.882 403.365 360.818 360.819 370.422 369.939 466.385 466.385 464.799 463.191 477.614 477.343 477.632 477.209 466.385 466.385 462.338 462.769 466.385 466.385 466.385 466.385 466.385 466.385 466.425 467.326 466.385 466.385 466.385 466.385 466.385 462.441 462.442 466.385 466.385 466.385 466.363 465.909 465.909 466.363 466.385 466.385 466.385 466.385 469.577 466.385 466.385 466.385 466.385 466.385 466.385 466.384 466.375 466.091 466.344 463.319 465.715 
        </DataArray>
        <DataArray type="Float32" Name="F1_Mass fraction_SG_co2gas_mod.xml" format="ascii">
1 1 1 1 1 1 1 1 1 1 1 1 1 1 1 1 1 1 1 1 1 1 1 1 1 1 1 1 1 1 1 1 1 1 1 1 1 1 1 1 1 1 1 1 1 1 1 1 1 1 1 1 1 1 1 1 1 1 1 1 1 1 1 1 1 
        </DataArray>
        <DataArray type="Float32" Name="Density_Mixture" format="ascii">
106.162 106.146 106.461 106.258 372.732 369.507 112.241 112.313 354.182 361.717 371.364 371.37 453.351 445.661 106.138 106.138 220.746 248.889 142.884 159.81 161.832 134.08 106.138 106.138 224.324 224.466 106.138 106.138 106.138 106.138 106.138 106.138 106.204 109.015 106.138 106.138 106.138 106.138 106.138 91.4031 91.4042 106.138 106.138 106.136 106.054 104.334 104.333 106.053 106.136 106.138 106.138 106.138 85.7197 106.138 106.138 106.138 106.138 106.137 106.138 106.134 106.098 105.023 105.979 94.7946 103.45 
        </DataArray>
        <DataArray type="Float32" Name="Pressure_Mixture" format="ascii">
6.27359e+06 6.27246e+06 6.29497e+06 6.28045e+06 2.02453e+07 2.00465e+07 6.71626e+06 6.72135e+06 1.96963e+07 2.02117e+07 1.84897e+07 1.849e+07 2.33968e+07 2.29538e+07 6.27185e+06 6.2719e+06 1.39503e+07 1.5784e+07 8.98197e+06 1.01447e+07 1.0291e+07 8.36612e+06 6.27186e+06 6.27186e+06 1.4111e+07 1.41345e+07 6.27186e+06 6.27186e+06 6.27186e+06 6.27186e+06 6.27186e+06 6.27186e+06 6.27691e+06 6.48071e+06 6.27186e+06 6.27186e+06 6.27186e+06 6.27186e+06 6.27186e+06 5.22603e+06 5.22611e+06 6.27186e+06 6.27186e+06 6.27174e+06 6.26588e+06 6.14304e+06 6.14293e+06 6.2658e+06 6.27173e+06 6.27186e+06 6.27186e+06 6.27186e+06 4.93444e+06 6.27186e+06 6.27186e+06 6.27186e+06 6.27186e+06 6.27181e+06 6.27185e+06 6.27157e+06 6.26899e+06 6.19221e+06 6.26053e+06 5.46484e+06 6.08055e+06 
        </DataArray>
        <DataArray type="Float32" Name="Velocity_Mixture" NumberOfComponents="3" format="ascii">
0.0615572 0.00200298 0 0.0184352 0.00138937 0 0.641079 0.215079 0 0.307859 -0.618241 0 299.713 0.656343 0 301.167 1.01245 0 15.7176 -3.14685 0 16.0217 3.0041 0 292.847 44.3188 0 290.179 -39.5673 0 339.705 0.169532 0 339.7 -0.172677 0 304.798 -42.2056 0 303.859 49.6056 0 -6.99817e-05 -2.86328e-05 0 0.00107527 -0.000897535 0 198.315 -26.719 0 193.258 61.6533 0 85.3335 -12.9217 0 121.156 -14.4008 0 119.361 12.1195 0 54.3469 11.1942 0 -8.04571e-05 -3.57515e-05 0 1.34912e-05 0 0 207.754 -23.4952 0 209.259 26.0259 0 0 0 0 0 0 0 0 0 0 0 0 0 -5.20845e-06 2.03993e-06 0 0 0 0 0.321759 -0.539063 0 7.17007 0.866185 0 0 0 0 0 0 0 0 0 0 0 0 0 0 0 0 11.5031 -1.19559 0 11.5031 1.19719 0 0 0 0 0 -8.58974e-06 0 0.000704755 -0.000883223 0 0.0390795 -0.0308322 0 0.958128 -0.391204 0 1.01412 0.37354 0 0.0425192 0.0299221 0 0.000797661 0.000881956 0 0 1.09029e-05 0 0 0 0 0 0 0 50.3746 0.00172376 0 0 0 0 0 0 0 0 0 0 0 0 0 0.000416345 6.9564e-05 0 0.000175597 0 0 0.0167868 -0.000563651 0 0.0306516 0.00430718 0 1.04458 0.106143 0 0.703982 -0.020296 0 16.1979 -0.00346148 0 12.3051 -0.299642 0 
        </DataArray>
        <DataArray type="Float32" Name="gradRho" format="ascii">
0.0899731 0.0335525 1.44626 1.73053 48.2296 48.497 20.1548 19.4077 56.825 70.4517 0.949739 1.2932 21.6339 21.5972 0.00218902 0.00678402 61.8353 58.0138 34.1518 39.14 38.2301 41.5487 0.000215386 3.35098e-05 69.4139 71.1666 4.16987e-09 4.51826e-07 1.01039e-06 5.89706e-06 9.19377e-06 1.9124e-07 9.75098 12.1528 0 0 0 1.76507e-10 1.76507e-10 0.880964 0.88134 4.70169e-08 7.4713e-06 0.000413175 0.0117573 0.124085 0.123788 0.0113509 0.000387084 6.225e-06 3.96569e-08 0 0.819468 6.21825e-09 1.26671e-08 1.55946e-06 2.90254e-06 0.00030964 0.000206991 0.0128558 0.0168807 0.400962 0.341821 3.35522 3.11424 
        </DataArray>
      </CellData>
    </Piece>
  </UnstructuredGrid>
</VTKFile>
