<?xml version="1.0"?>
<VTKFile type="UnstructuredGrid" version="0.1" byte_order="LittleEndian">
  <UnstructuredGrid>
    <Piece NumberOfPoints="50" NumberOfCells="65">
      <Points>
        <DataArray type="Float32" NumberOfComponents="3" format="ascii">
          0 5 0 0 -5 0 15 0.2 0 15 -0.2 0 35 0.2 0 35 -0.2 0 2.14286 4.31429 0 4.28571 3.62857 0 6.42857 2.94286 0 8.57143 2.25714 0 10.7143 1.57143 0 12.8571 0.885714 0 17.8571 0.2 0 20.7143 0.2 0 23.5714 0.2 0 26.4286 0.2 0 29.2857 0.2 0 32.1429 0.2 0 32.1429 -0.2 0 29.2857 -0.2 0 26.4286 -0.2 0 23.5714 -0.2 0 20.7143 -0.2 0 17.8571 -0.2 0 12.8571 -0.885714 0 10.7143 -1.57143 0 8.57143 -2.25714 0 6.42857 -2.94286 0 4.28571 -3.62857 0 2.14286 -4.31429 0 0 -2.5 0 0 -6.16307e-12 0 0 2.5 0 3.95974 -5.7158e-13 0 13.9286 -3.66374e-15 0 6.61813 2.81487e-12 0 2.86365 2.0434 0 2.86365 -2.0434 0 9.43036 1.987e-12 0 11.3926 2.79508e-14 0 4.83116 1.72297 0 4.83116 -1.72297 0 1.90629 -3.21031e-12 0 33.5714 0 0 16.4286 -1.80625e-18 0 25 6.93889e-18 0 19.2857 -6.93889e-18 0 30.7143 0 0 22.1429 0 0 27.8571 0 0 
        </DataArray>
      </Points>
      <Cells>
        <DataArray type="Int32" Name="connectivity" format="ascii">
          8 9 35 26 27 35 8 35 40 27 41 35 30 42 37 32 36 42 33 40 35 33 35 41 29 30 37 6 36 32 30 31 42 31 32 42 0 6 32 30 29 1 26 35 38 9 38 35 6 7 36 28 29 37 7 40 36 33 41 37 33 36 40 28 37 41 9 10 38 25 26 38 33 42 36 33 37 42 11 34 24 24 25 39 10 11 39 25 38 39 10 39 38 11 24 39 27 28 41 7 8 40 2 34 11 3 24 34 2 3 34 2 44 12 3 23 44 4 17 43 5 43 18 12 46 13 13 48 14 14 45 15 15 49 16 16 47 17 18 47 19 19 49 20 20 45 21 21 48 22 22 46 23 2 3 44 4 43 5 12 44 23 12 23 46 13 46 22 13 22 48 14 21 45 14 48 21 15 45 20 15 20 49 16 19 47 16 49 19 17 18 43 17 47 18 
        </DataArray>
        <DataArray type="Int32" Name="offsets" format="ascii">
          3 6 9 12 15 18 21 24 27 30 33 36 39 42 45 48 51 54 57 60 63 66 69 72 75 78 81 84 87 90 93 96 99 102 105 108 111 114 117 120 123 126 129 132 135 138 141 144 147 150 153 156 159 162 165 168 171 174 177 180 183 186 189 192 195 
        </DataArray>
        <DataArray type="UInt8" Name="types" format="ascii">
          5 5 5 5 5 5 5 5 5 5 5 5 5 5 5 5 5 5 5 5 5 5 5 5 5 5 5 5 5 5 5 5 5 5 5 5 5 5 5 5 5 5 5 5 5 5 5 5 5 5 5 5 5 5 5 5 5 5 5 5 5 5 5 5 5 
        </DataArray>
      </Cells>
      <CellData>
        <DataArray type="Float32" Name="F0_Alpha_SG_co2liq_mod.xml" format="ascii">
1.72682e-10 1.72682e-10 1.72682e-10 1.72682e-10 1.7126e-10 1.71262e-10 1.72682e-10 1.72682e-10 1.71617e-10 1.71654e-10 1.69316e-10 1.69316e-10 1.69091e-10 1.691e-10 1.72682e-10 1.72682e-10 1.72666e-10 1.72674e-10 1.72687e-10 1.72683e-10 1.72683e-10 1.72684e-10 1.72682e-10 1.72682e-10 1.72689e-10 1.72689e-10 1.72682e-10 1.72682e-10 1.72682e-10 1.72682e-10 1.72682e-10 1.72682e-10 1.72682e-10 1.72682e-10 1.72682e-10 1.72682e-10 1.72682e-10 1.72682e-10 1.72682e-10 1.72809e-10 1.72809e-10 1.72682e-10 1.72682e-10 1.72682e-10 1.72682e-10 1.72683e-10 1.72683e-10 1.72682e-10 1.72682e-10 1.72682e-10 1.72682e-10 1.72682e-10 1.72932e-10 1.72682e-10 1.72682e-10 1.72682e-10 1.72682e-10 1.72682e-10 1.72682e-10 1.72682e-10 1.72682e-10 1.72682e-10 1.72682e-10 1.72731e-10 1.72685e-10 
        </DataArray>
        <DataArray type="Float32" Name="F0_Density_SG_co2liq_mod.xml" format="ascii">
5897.13 5897.13 5897.13 5897.13 5991.45 5991.35 5897.13 5897.13 5968.01 5965.63 6167.9 6167.96 6175.65 6174.76 5897.13 5897.13 5898.13 5897.62 5896.78 5897.08 5897.07 5897.02 5897.13 5897.13 5896.61 5896.65 5897.13 5897.13 5897.13 5897.13 5897.13 5897.13 5897.13 5897.11 5897.13 5897.13 5897.13 5897.13 5897.13 5888.93 5888.93 5897.13 5897.13 5897.13 5897.13 5897.08 5897.07 5897.13 5897.13 5897.13 5897.13 5897.13 5879.37 5897.13 5897.13 5897.13 5897.13 5897.13 5897.13 5897.13 5897.13 5897.12 5897.13 5894.01 5896.93 
        </DataArray>
        <DataArray type="Float32" Name="F0_Temperature_SG_co2liq_mod.xml" format="ascii">
41.7807 41.7807 41.7807 41.7807 42.001 42.0008 41.7807 41.7807 41.9569 41.9521 42.2244 42.2244 42.2314 42.2306 41.7807 41.7807 41.7838 41.7822 41.7796 41.7805 41.7805 41.7803 41.7807 41.7807 41.779 41.7792 41.7807 41.7807 41.7807 41.7807 41.7807 41.7807 41.7807 41.7806 41.7807 41.7807 41.7807 41.7807 41.7807 41.754 41.754 41.7807 41.7807 41.7807 41.7807 41.7805 41.7805 41.7807 41.7807 41.7807 41.7807 41.7807 41.7204 41.7807 41.7807 41.7807 41.7807 41.7807 41.7807 41.7807 41.7807 41.7806 41.7807 41.7707 41.78 
        </DataArray>
        <DataArray type="Float32" Name="F0_Mass fraction_SG_co2liq_mod.xml" format="ascii">
9.5944e-09 9.5944e-09 9.59442e-09 9.5944e-09 6.73434e-09 6.73609e-09 9.59442e-09 9.5944e-09 7.25976e-09 7.31579e-09 3.98901e-09 3.98867e-09 3.99085e-09 3.99887e-09 9.5944e-09 9.5944e-09 9.55435e-09 9.57556e-09 9.60909e-09 9.59667e-09 9.59673e-09 9.59885e-09 9.5944e-09 9.5944e-09 9.61882e-09 9.61714e-09 9.5944e-09 9.5944e-09 9.5944e-09 9.5944e-09 9.5944e-09 9.5944e-09 9.59455e-09 9.59545e-09 9.5944e-09 9.5944e-09 9.5944e-09 9.5944e-09 9.5944e-09 9.95722e-09 9.95722e-09 9.5944e-09 9.5944e-09 9.5944e-09 9.5944e-09 9.59646e-09 9.59677e-09 9.5944e-09 9.5944e-09 9.5944e-09 9.5944e-09 9.5944e-09 1.05087e-08 9.5944e-09 9.5944e-09 9.5944e-09 9.5944e-09 9.5944e-09 9.5944e-09 9.5944e-09 9.5944e-09 9.59478e-09 9.59441e-09 9.72814e-09 9.60277e-09 
        </DataArray>
        <DataArray type="Float32" Name="F1_Alpha_SG_co2gas_mod.xml" format="ascii">
1 1 1 1 1 1 1 1 1 1 1 1 1 1 1 1 1 1 1 1 1 1 1 1 1 1 1 1 1 1 1 1 1 1 1 1 1 1 1 1 1 1 1 1 1 1 1 1 1 1 1 1 1 1 1 1 1 1 1 1 1 1 1 1 1 
        </DataArray>
        <DataArray type="Float32" Name="F1_Density_SG_co2gas_mod.xml" format="ascii">
106.138 106.138 106.138 106.138 152.368 152.327 106.138 106.138 141.081 139.975 261.801 261.825 261.659 261.113 106.138 106.138 106.591 106.35 105.973 106.112 106.112 106.088 106.138 106.138 105.863 105.882 106.138 106.138 106.138 106.138 106.138 106.138 106.136 106.126 106.138 106.138 106.138 106.138 106.138 102.203 102.203 106.138 106.138 106.138 106.138 106.115 106.111 106.138 106.138 106.138 106.138 106.138 96.7511 106.138 106.138 106.138 106.138 106.138 106.138 106.138 106.138 106.134 106.138 104.653 106.044 
        </DataArray>
        <DataArray type="Float32" Name="F1_Temperature_SG_co2gas_mod.xml" format="ascii">
466.385 466.385 466.385 466.385 458.875 458.87 466.385 466.385 461.265 461.361 397.358 397.361 403.065 403.28 466.385 466.385 466.599 466.53 466.342 466.379 466.378 466.372 466.385 466.385 466.442 466.452 466.385 466.385 466.385 466.385 466.385 466.385 466.385 466.382 466.385 466.385 466.385 466.385 466.385 465.359 465.359 466.385 466.385 466.385 466.385 466.379 466.378 466.385 466.385 466.385 466.385 466.385 467.648 466.385 466.385 466.385 466.385 466.385 466.385 466.385 466.385 466.384 466.385 465.995 466.361 
        </DataArray>
        <DataArray type="Float32" Name="F1_Mass fraction_SG_co2gas_mod.xml" format="ascii">
1 1 1 1 1 1 1 1 1 1 1 1 1 1 1 1 1 1 1 1 1 1 1 1 1 1 1 1 1 1 1 1 1 1 1 1 1 1 1 1 1 1 1 1 1 1 1 1 1 1 1 1 1 1 1 1 1 1 1 1 1 1 1 1 1 
        </DataArray>
        <DataArray type="Float32" Name="Density_Mixture" format="ascii">
106.138 106.138 106.138 106.138 152.368 152.327 106.138 106.138 141.081 139.975 261.801 261.825 261.659 261.113 106.138 106.138 106.591 106.35 105.973 106.112 106.112 106.088 106.138 106.138 105.863 105.882 106.138 106.138 106.138 106.138 106.138 106.138 106.136 106.126 106.138 106.138 106.138 106.138 106.138 102.203 102.203 106.138 106.138 106.138 106.138 106.115 106.111 106.138 106.138 106.138 106.138 106.138 96.7511 106.138 106.138 106.138 106.138 106.138 106.138 106.138 106.138 106.134 106.138 104.653 106.044 
        </DataArray>
        <DataArray type="Float32" Name="Pressure_Mixture" format="ascii">
6.27186e+06 6.27186e+06 6.27184e+06 6.27186e+06 9.2241e+06 9.2213e+06 6.27184e+06 6.27186e+06 8.52392e+06 8.45211e+06 1.41566e+07 1.4158e+07 1.43644e+07 1.43406e+07 6.27186e+06 6.27186e+06 6.30569e+06 6.28842e+06 6.26005e+06 6.27003e+06 6.26998e+06 6.26828e+06 6.27186e+06 6.27186e+06 6.25423e+06 6.25565e+06 6.27186e+06 6.27186e+06 6.27186e+06 6.27186e+06 6.27186e+06 6.27186e+06 6.27174e+06 6.27101e+06 6.27186e+06 6.27186e+06 6.27186e+06 6.27186e+06 6.27186e+06 5.99136e+06 5.99136e+06 6.27186e+06 6.27186e+06 6.27186e+06 6.27186e+06 6.2702e+06 6.26995e+06 6.27186e+06 6.27186e+06 6.27186e+06 6.27186e+06 6.27186e+06 5.65649e+06 6.27186e+06 6.27186e+06 6.27186e+06 6.27186e+06 6.27186e+06 6.27186e+06 6.27186e+06 6.27186e+06 6.27156e+06 6.27185e+06 6.1658e+06 6.26513e+06 
        </DataArray>
        <DataArray type="Float32" Name="Velocity_Mixture" NumberOfComponents="3" format="ascii">
0 0 0 0 0 0 -0.000352548 0.000447191 0 3.80586e-05 5.67725e-05 0 107.995 -18.6652 0 108.084 18.9862 0 -0.000411304 0.000214619 0 -6.03776e-05 -2.7271e-05 0 84.4388 28.0695 0 84.0795 -24.6858 0 276.253 1.60509 0 276.229 -1.62254 0 260.206 -16.8415 0 254.33 34.6237 0 0 0 0 0 0 0 0.0037528 -0.754122 0 0.626989 -0.0732878 0 -0.306845 0.263544 0 -0.0527984 0.0160196 0 -0.0509928 0.00979884 0 -0.10266 -0.0804746 0 0 0 0 0 0 0 -0.428228 0.173788 0 -0.380191 -0.146189 0 0 0 0 0 0 0 0 0 0 0 0 0 0 0 0 0 0 0 -0.003545 0.000781446 0 -0.0288009 -0.00714467 0 0 0 0 0 0 0 0 0 0 0 0 0 0 0 0 1.91357 -1.51631 0 1.91357 1.51631 0 0 0 0 0 0 0 0 0 0 1.05951e-06 -3.0059e-05 0 0.00837723 -0.0221393 0 0.0105437 0.0239861 0 4.4967e-06 3.85587e-05 0 0 0 0 0 0 0 0 0 0 0 0 0 18.9614 0 0 0 0 0 0 0 0 0 0 0 0 0 0 0 0 0 0 0 0 0 0 0 0 0 0 0.0025503 0.000719462 0 0.000513466 -1.60579e-05 0 0.938032 0 0 0.341651 -0.0147567 0 
        </DataArray>
        <DataArray type="Float32" Name="gradRho" format="ascii">
6.34192e-05 8.38937e-06 0.00357229 0.000498992 47.1683 47.286 0.0100419 0.00985797 39.5865 39.4044 76.0051 76.0454 28.7284 28.3383 1.54786e-07 1.13725e-07 11.1551 11.5346 0.109913 0.0838154 0.0946981 0.061033 4.81446e-10 8.69862e-10 15.8855 15.9017 0 0 0 0 0 0 0.0171399 0.055043 0 0 0 0 0 0.960286 0.960286 0 0 1.4711e-08 3.20565e-05 0.0148671 0.0132953 2.85038e-05 1.31973e-08 0 0 0 0.786075 0 0 0 0 1.78347e-09 4.9161e-11 9.30958e-07 5.01538e-06 0.00384734 0.00143658 0.722205 0.493442 
        </DataArray>
      </CellData>
    </Piece>
  </UnstructuredGrid>
</VTKFile>
