<?xml version="1.0"?>
<VTKFile type="UnstructuredGrid" version="0.1" byte_order="LittleEndian">
  <UnstructuredGrid>
    <Piece NumberOfPoints="50" NumberOfCells="65">
      <Points>
        <DataArray type="Float32" NumberOfComponents="3" format="ascii">
          0 5 0 0 -5 0 15 0.2 0 15 -0.2 0 35 0.2 0 35 -0.2 0 2.14286 4.31429 0 4.28571 3.62857 0 6.42857 2.94286 0 8.57143 2.25714 0 10.7143 1.57143 0 12.8571 0.885714 0 17.8571 0.2 0 20.7143 0.2 0 23.5714 0.2 0 26.4286 0.2 0 29.2857 0.2 0 32.1429 0.2 0 32.1429 -0.2 0 29.2857 -0.2 0 26.4286 -0.2 0 23.5714 -0.2 0 20.7143 -0.2 0 17.8571 -0.2 0 12.8571 -0.885714 0 10.7143 -1.57143 0 8.57143 -2.25714 0 6.42857 -2.94286 0 4.28571 -3.62857 0 2.14286 -4.31429 0 0 -2.5 0 0 -6.16307e-12 0 0 2.5 0 3.95974 -5.7158e-13 0 13.9286 -3.66374e-15 0 6.61813 2.81487e-12 0 2.86365 2.0434 0 2.86365 -2.0434 0 9.43036 1.987e-12 0 11.3926 2.79508e-14 0 4.83116 1.72297 0 4.83116 -1.72297 0 1.90629 -3.21031e-12 0 33.5714 0 0 16.4286 -1.80625e-18 0 25 6.93889e-18 0 19.2857 -6.93889e-18 0 30.7143 0 0 22.1429 0 0 27.8571 0 0 
        </DataArray>
      </Points>
      <Cells>
        <DataArray type="Int32" Name="connectivity" format="ascii">
          8 9 35 26 27 35 8 35 40 27 41 35 30 42 37 32 36 42 33 40 35 33 35 41 29 30 37 6 36 32 30 31 42 31 32 42 0 6 32 30 29 1 26 35 38 9 38 35 6 7 36 28 29 37 7 40 36 33 41 37 33 36 40 28 37 41 9 10 38 25 26 38 33 42 36 33 37 42 11 34 24 24 25 39 10 11 39 25 38 39 10 39 38 11 24 39 27 28 41 7 8 40 2 34 11 3 24 34 2 3 34 2 44 12 3 23 44 4 17 43 5 43 18 12 46 13 13 48 14 14 45 15 15 49 16 16 47 17 18 47 19 19 49 20 20 45 21 21 48 22 22 46 23 2 3 44 4 43 5 12 44 23 12 23 46 13 46 22 13 22 48 14 21 45 14 48 21 15 45 20 15 20 49 16 19 47 16 49 19 17 18 43 17 47 18 
        </DataArray>
        <DataArray type="Int32" Name="offsets" format="ascii">
          3 6 9 12 15 18 21 24 27 30 33 36 39 42 45 48 51 54 57 60 63 66 69 72 75 78 81 84 87 90 93 96 99 102 105 108 111 114 117 120 123 126 129 132 135 138 141 144 147 150 153 156 159 162 165 168 171 174 177 180 183 186 189 192 195 
        </DataArray>
        <DataArray type="UInt8" Name="types" format="ascii">
          5 5 5 5 5 5 5 5 5 5 5 5 5 5 5 5 5 5 5 5 5 5 5 5 5 5 5 5 5 5 5 5 5 5 5 5 5 5 5 5 5 5 5 5 5 5 5 5 5 5 5 5 5 5 5 5 5 5 5 5 5 5 5 5 5 
        </DataArray>
      </Cells>
      <CellData>
        <DataArray type="Float32" Name="F0_Alpha_SG_co2liq_mod.xml" format="ascii">
1.72639e-10 1.72655e-10 1.72401e-10 1.72539e-10 1.65331e-10 1.65318e-10 1.70829e-10 1.70705e-10 1.64601e-10 1.64401e-10 1.67735e-10 1.67735e-10 1.63278e-10 1.63577e-10 1.72682e-10 1.72678e-10 1.64652e-10 1.63846e-10 1.66792e-10 1.66844e-10 1.66889e-10 1.66788e-10 1.72682e-10 1.72682e-10 1.66004e-10 1.66021e-10 1.72682e-10 1.72682e-10 1.72682e-10 1.72682e-10 1.72682e-10 1.72682e-10 1.71325e-10 1.71171e-10 1.72682e-10 1.72682e-10 1.72682e-10 1.72682e-10 1.72682e-10 1.73237e-10 1.73237e-10 1.72682e-10 1.72682e-10 1.72683e-10 1.72694e-10 1.72811e-10 1.72811e-10 1.72694e-10 1.72683e-10 1.72682e-10 1.72682e-10 1.72682e-10 1.73283e-10 1.72682e-10 1.72682e-10 1.72682e-10 1.72682e-10 1.72682e-10 1.72682e-10 1.72683e-10 1.72689e-10 1.72773e-10 1.72701e-10 1.73149e-10 1.72851e-10 
        </DataArray>
        <DataArray type="Float32" Name="F0_Density_SG_co2liq_mod.xml" format="ascii">
5899.88 5898.83 5914.59 5906.09 6462.51 6463.19 6006.3 6013.26 6505.7 6518.33 6343.82 6343.79 6633.61 6613.87 5897.1 5897.41 6417.6 6467.69 6238.39 6256.24 6253.69 6240.25 5897.13 5897.13 6352.07 6350.93 5897.13 5897.13 5897.13 5897.13 5897.12 5897.13 5976.31 5984.54 5897.13 5897.13 5897.13 5897.13 5897.13 5859.66 5859.66 5897.13 5897.13 5897.09 5896.35 5888.83 5888.86 5896.35 5897.09 5897.13 5897.13 5897.13 5852.53 5897.13 5897.13 5897.13 5897.13 5897.11 5897.13 5897.06 5896.67 5891.27 5895.92 5866.03 5886.17 
        </DataArray>
        <DataArray type="Float32" Name="F0_Temperature_SG_co2liq_mod.xml" format="ascii">
41.7892 41.786 41.8321 41.8079 42.4063 42.4066 42.0265 42.0378 42.4231 42.4276 42.3497 42.3497 42.4633 42.4579 41.7806 41.7815 42.3869 42.4084 42.2822 42.2951 42.2933 42.2836 41.7807 41.7807 42.3542 42.3536 41.7807 41.7807 41.7807 41.7807 41.7807 41.7807 41.9731 41.9885 41.7807 41.7807 41.7807 41.7807 41.7807 41.64 41.64 41.7807 41.7807 41.7806 41.7782 41.7536 41.7537 41.7782 41.7806 41.7807 41.7807 41.7807 41.606 41.7807 41.7807 41.7807 41.7807 41.7806 41.7807 41.7805 41.7792 41.7618 41.7769 41.6679 41.7446 
        </DataArray>
        <DataArray type="Float32" Name="F0_Mass fraction_SG_co2liq_mod.xml" format="ascii">
9.48093e-09 9.5236e-09 8.9329e-09 9.23903e-09 2.58067e-09 2.57927e-09 6.72877e-09 6.61407e-09 2.48792e-09 2.45988e-09 2.78539e-09 2.78548e-09 2.12753e-09 2.16144e-09 9.59547e-09 9.58281e-09 3.07005e-09 2.90822e-09 4.28374e-09 3.97466e-09 3.988e-09 4.25477e-09 9.59454e-09 9.5946e-09 3.21374e-09 3.2186e-09 9.5944e-09 9.5944e-09 9.59442e-09 9.59439e-09 9.59468e-09 9.5944e-09 7.34225e-09 7.19227e-09 9.5944e-09 9.5944e-09 9.5944e-09 9.5944e-09 9.5944e-09 1.16402e-08 1.16399e-08 9.5944e-09 9.59444e-09 9.59588e-09 9.62717e-09 9.9617e-09 9.96029e-09 9.62729e-09 9.5959e-09 9.59444e-09 9.5944e-09 9.5944e-09 1.24242e-08 9.5944e-09 9.5944e-09 9.5944e-09 9.59442e-09 9.59513e-09 9.59448e-09 9.59717e-09 9.61379e-09 9.84945e-09 9.64558e-09 1.12057e-08 1.00891e-08 
        </DataArray>
        <DataArray type="Float32" Name="F1_Alpha_SG_co2gas_mod.xml" format="ascii">
1 1 1 1 1 1 1 1 1 1 1 1 1 1 1 1 1 1 1 1 1 1 1 1 1 1 1 1 1 1 1 1 1 1 1 1 1 1 1 1 1 1 1 1 1 1 1 1 1 1 1 1 1 1 1 1 1 1 1 1 1 1 1 1 1 
        </DataArray>
        <DataArray type="Float32" Name="F1_Density_SG_co2gas_mod.xml" format="ascii">
107.431 106.941 114.149 110.296 414.02 414.258 152.487 155.198 430.42 435.639 382.022 382.008 509.099 500.535 106.126 106.268 344.186 364.382 242.898 262.618 261.704 244.619 106.136 106.135 328.112 327.591 106.138 106.138 106.137 106.138 106.135 106.138 139.452 142.428 106.138 106.138 106.138 106.138 106.138 87.2073 87.2096 106.138 106.137 106.121 105.77 102.157 102.171 105.769 106.121 106.137 106.138 106.138 81.6268 106.138 106.138 106.138 106.138 106.129 106.137 106.107 105.92 103.341 105.565 90.6406 100.844 
        </DataArray>
        <DataArray type="Float32" Name="F1_Temperature_SG_co2gas_mod.xml" format="ascii">
466.737 466.6 468.791 467.635 378.895 378.966 478.284 478.948 381.959 382.42 355.852 355.851 366.331 365.821 466.382 466.42 432.89 432.995 481.605 457.787 457.618 479.602 466.385 466.385 418.793 418.841 466.385 466.385 466.385 466.385 466.385 466.385 479.049 480.965 466.385 466.385 466.385 466.385 466.385 461.261 461.261 466.385 466.385 466.381 466.288 465.331 465.333 466.288 466.381 466.385 466.385 466.385 469.23 466.385 466.385 466.385 466.385 466.383 466.385 466.377 466.328 465.643 466.236 462.149 465.075 
        </DataArray>
        <DataArray type="Float32" Name="F1_Mass fraction_SG_co2gas_mod.xml" format="ascii">
1 1 1 1 1 1 1 1 1 1 1 1 1 1 1 1 1 1 1 1 1 1 1 1 1 1 1 1 1 1 1 1 1 1 1 1 1 1 1 1 1 1 1 1 1 1 1 1 1 1 1 1 1 1 1 1 1 1 1 1 1 1 1 1 1 
        </DataArray>
        <DataArray type="Float32" Name="Density_Mixture" format="ascii">
107.431 106.941 114.149 110.296 414.02 414.258 152.487 155.198 430.42 435.639 382.022 382.008 509.099 500.535 106.126 106.268 344.186 364.382 242.898 262.618 261.704 244.619 106.136 106.135 328.112 327.591 106.138 106.138 106.137 106.138 106.135 106.138 139.452 142.428 106.138 106.138 106.138 106.138 106.138 87.2073 87.2096 106.138 106.137 106.121 105.77 102.157 102.171 105.769 106.121 106.137 106.138 106.138 81.6268 106.138 106.138 106.138 106.138 106.129 106.137 106.107 105.92 103.341 105.565 90.6406 100.844 
        </DataArray>
        <DataArray type="Float32" Name="Pressure_Mixture" format="ascii">
6.36455e+06 6.32934e+06 6.85182e+06 6.57224e+06 2.17974e+07 2.18147e+07 9.65996e+06 9.8624e+06 2.28866e+07 2.32039e+07 1.87714e+07 1.87706e+07 2.60817e+07 2.55912e+07 6.271e+06 6.2812e+06 2.06587e+07 2.19284e+07 1.60294e+07 1.64982e+07 1.64314e+07 1.60784e+07 6.27175e+06 6.27169e+06 1.89837e+07 1.89544e+07 6.27186e+06 6.27186e+06 6.27184e+06 6.27186e+06 6.27164e+06 6.27186e+06 8.77392e+06 9.01951e+06 6.27186e+06 6.27186e+06 6.27186e+06 6.27186e+06 6.27186e+06 4.93058e+06 4.93074e+06 6.27186e+06 6.27183e+06 6.27067e+06 6.24558e+06 5.9878e+06 5.98882e+06 6.24548e+06 6.27065e+06 6.27183e+06 6.27186e+06 6.27186e+06 4.65243e+06 6.27186e+06 6.27186e+06 6.27186e+06 6.27185e+06 6.27127e+06 6.27179e+06 6.26963e+06 6.25628e+06 6.07217e+06 6.23092e+06 5.17122e+06 5.89578e+06 
        </DataArray>
        <DataArray type="Float32" Name="Velocity_Mixture" NumberOfComponents="3" format="ascii">
3.44745 -0.0475544 0 1.51618 0.357731 0 17.1597 -1.09401 0 9.93437 -6.63106 0 317.776 8.17013 0 318.908 -9.76883 0 108.715 -6.9993 0 113.937 6.3909 0 308.384 43.6575 0 307.224 -42.6868 0 342.835 0.116319 0 342.836 -0.115032 0 296.448 -43.7332 0 297.808 46.3048 0 -0.0297365 -0.0770092 0 0.282947 -0.174851 0 270.941 -52.3316 0 271.428 74.6052 0 220.52 -33.8999 0 235.048 2.52869 0 235.406 0.259883 0 203.523 58.854 0 -0.0190021 -0.0149769 0 -0.00285611 -0.00101947 0 274.991 -19.8754 0 275.648 22.1681 0 0 0 0 1.4367e-05 0 0 -0.000595848 -0.000183758 0 0.000486405 0.0013182 0 -0.00619209 0.00495023 0 0 5.44625e-06 0 58.8992 20.1903 0 87.3881 -4.16309 0 0 0 0 0 0 0 0 0 0 0 0 0 0 0 0 17.9776 -0.965203 0 17.979 0.96976 0 0 0 0 0.000157199 -0.000191423 0 0.00791804 -0.00592481 0 0.193283 -0.0895501 0 2.45154 -0.557861 0 2.51157 0.534979 0 0.204253 0.0860669 0 0.00858555 0.00576693 0 0.000180289 0.000187848 0 0 0 0 0 0 0 59.4208 0.00516438 0 0 0 0 0 0 0 3.547e-05 0 0 9.81472e-05 0 0 0.00659608 0.000844587 0 0.00381815 -0.000119581 0 0.137783 -0.00389487 0 0.203894 0.0187625 0 3.38055 0.173051 0 2.59933 -0.0602532 0 29.1758 -0.0067557 0 22.8708 -0.289038 0 
        </DataArray>
        <DataArray type="Float32" Name="gradRho" format="ascii">
2.12451 1.09941 11.6379 11.775 24.9902 25.9553 49.5105 50.2442 41.4336 51.3792 22.2246 22.3965 17.343 16.5536 0.1981 0.382808 50.7223 46.6996 68.1963 57.44 58.5343 75.21 0.0451359 0.00382173 50.7367 50.3505 3.8352e-06 2.20908e-05 0.00109897 0.00125594 0.00132704 0.000115324 40.4924 38.743 5.20014e-08 5.74167e-08 8.05149e-09 1.62573e-08 1.37103e-08 0.853131 0.853882 2.21533e-06 8.44579e-05 0.00227048 0.0293521 0.182949 0.184465 0.029021 0.00218807 8.05514e-05 1.89707e-06 5.43578e-09 0.804736 5.36072e-07 8.37615e-07 5.43049e-05 7.71934e-05 0.00339401 0.00261966 0.0667433 0.0798312 0.891354 0.797858 3.90125 3.6982 
        </DataArray>
      </CellData>
    </Piece>
  </UnstructuredGrid>
</VTKFile>
