<?xml version="1.0"?>
<VTKFile type="UnstructuredGrid" version="0.1" byte_order="LittleEndian">
  <UnstructuredGrid>
    <Piece NumberOfPoints="50" NumberOfCells="65">
      <Points>
        <DataArray type="Float32" NumberOfComponents="3" format="ascii">
          0 5 0 0 -5 0 15 0.2 0 15 -0.2 0 35 0.2 0 35 -0.2 0 2.14286 4.31429 0 4.28571 3.62857 0 6.42857 2.94286 0 8.57143 2.25714 0 10.7143 1.57143 0 12.8571 0.885714 0 17.8571 0.2 0 20.7143 0.2 0 23.5714 0.2 0 26.4286 0.2 0 29.2857 0.2 0 32.1429 0.2 0 32.1429 -0.2 0 29.2857 -0.2 0 26.4286 -0.2 0 23.5714 -0.2 0 20.7143 -0.2 0 17.8571 -0.2 0 12.8571 -0.885714 0 10.7143 -1.57143 0 8.57143 -2.25714 0 6.42857 -2.94286 0 4.28571 -3.62857 0 2.14286 -4.31429 0 0 -2.5 0 0 -6.16307e-12 0 0 2.5 0 3.95974 -5.7158e-13 0 13.9286 -3.66374e-15 0 6.61813 2.81487e-12 0 2.86365 2.0434 0 2.86365 -2.0434 0 9.43036 1.987e-12 0 11.3926 2.79508e-14 0 4.83116 1.72297 0 4.83116 -1.72297 0 1.90629 -3.21031e-12 0 33.5714 0 0 16.4286 -1.80625e-18 0 25 6.93889e-18 0 19.2857 -6.93889e-18 0 30.7143 0 0 22.1429 0 0 27.8571 0 0 
        </DataArray>
      </Points>
      <Cells>
        <DataArray type="Int32" Name="connectivity" format="ascii">
          8 9 35 26 27 35 8 35 40 27 41 35 30 42 37 32 36 42 33 40 35 33 35 41 29 30 37 6 36 32 30 31 42 31 32 42 0 6 32 30 29 1 26 35 38 9 38 35 6 7 36 28 29 37 7 40 36 33 41 37 33 36 40 28 37 41 9 10 38 25 26 38 33 42 36 33 37 42 11 34 24 24 25 39 10 11 39 25 38 39 10 39 38 11 24 39 27 28 41 7 8 40 2 34 11 3 24 34 2 3 34 2 44 12 3 23 44 4 17 43 5 43 18 12 46 13 13 48 14 14 45 15 15 49 16 16 47 17 18 47 19 19 49 20 20 45 21 21 48 22 22 46 23 2 3 44 4 43 5 12 44 23 12 23 46 13 46 22 13 22 48 14 21 45 14 48 21 15 45 20 15 20 49 16 19 47 16 49 19 17 18 43 17 47 18 
        </DataArray>
        <DataArray type="Int32" Name="offsets" format="ascii">
          3 6 9 12 15 18 21 24 27 30 33 36 39 42 45 48 51 54 57 60 63 66 69 72 75 78 81 84 87 90 93 96 99 102 105 108 111 114 117 120 123 126 129 132 135 138 141 144 147 150 153 156 159 162 165 168 171 174 177 180 183 186 189 192 195 
        </DataArray>
        <DataArray type="UInt8" Name="types" format="ascii">
          5 5 5 5 5 5 5 5 5 5 5 5 5 5 5 5 5 5 5 5 5 5 5 5 5 5 5 5 5 5 5 5 5 5 5 5 5 5 5 5 5 5 5 5 5 5 5 5 5 5 5 5 5 5 5 5 5 5 5 5 5 5 5 5 5 
        </DataArray>
      </Cells>
      <CellData>
        <DataArray type="Float32" Name="F0_Alpha_SG_co2liq_mod.xml" format="ascii">
1.72682e-10 1.72682e-10 1.72682e-10 1.72682e-10 1.69643e-10 1.69652e-10 1.72682e-10 1.72682e-10 1.70316e-10 1.70355e-10 1.68494e-10 1.68493e-10 1.67711e-10 1.67773e-10 1.72682e-10 1.72682e-10 1.72483e-10 1.724e-10 1.72674e-10 1.72662e-10 1.72662e-10 1.72705e-10 1.72682e-10 1.72682e-10 1.72461e-10 1.72456e-10 1.72682e-10 1.72682e-10 1.72682e-10 1.72682e-10 1.72682e-10 1.72682e-10 1.72684e-10 1.72683e-10 1.72682e-10 1.72682e-10 1.72682e-10 1.72682e-10 1.72682e-10 1.72891e-10 1.72891e-10 1.72682e-10 1.72682e-10 1.72682e-10 1.72682e-10 1.72687e-10 1.72687e-10 1.72682e-10 1.72682e-10 1.72682e-10 1.72682e-10 1.72682e-10 1.72999e-10 1.72682e-10 1.72682e-10 1.72682e-10 1.72682e-10 1.72682e-10 1.72682e-10 1.72682e-10 1.72682e-10 1.72683e-10 1.72682e-10 1.72799e-10 1.72694e-10 
        </DataArray>
        <DataArray type="Float32" Name="F0_Density_SG_co2liq_mod.xml" format="ascii">
5897.13 5897.13 5897.12 5897.13 6100.21 6099.69 5897.13 5897.13 6055.72 6052.85 6242.48 6242.55 6283.78 6279.63 5897.13 5897.13 5909.31 5914.47 5897.62 5898.39 5898.39 5895.64 5897.13 5897.13 5910.41 5910.7 5897.13 5897.13 5897.13 5897.13 5897.13 5897.13 5896.98 5897.09 5897.13 5897.13 5897.13 5897.13 5897.13 5883.6 5883.6 5897.13 5897.13 5897.13 5897.13 5896.84 5896.82 5897.13 5897.13 5897.13 5897.13 5897.13 5874.26 5897.13 5897.13 5897.13 5897.13 5897.13 5897.13 5897.13 5897.13 5897.04 5897.12 5889.59 5896.38 
        </DataArray>
        <DataArray type="Float32" Name="F0_Temperature_SG_co2liq_mod.xml" format="ascii">
41.7807 41.7807 41.7807 41.7807 42.1553 42.1547 41.7807 41.7807 42.1002 42.0963 42.2852 42.2853 42.3137 42.311 41.7807 41.7807 41.8172 41.8317 41.7822 41.7846 41.7846 41.7759 41.7807 41.7807 41.8203 41.8212 41.7807 41.7807 41.7807 41.7807 41.7807 41.7807 41.7802 41.7805 41.7807 41.7807 41.7807 41.7807 41.7807 41.7356 41.7356 41.7807 41.7807 41.7807 41.7807 41.7798 41.7797 41.7807 41.7807 41.7807 41.7807 41.7807 41.7011 41.7807 41.7807 41.7807 41.7807 41.7807 41.7807 41.7807 41.7807 41.7804 41.7807 41.7562 41.7783 
        </DataArray>
        <DataArray type="Float32" Name="F0_Mass fraction_SG_co2liq_mod.xml" format="ascii">
9.5944e-09 9.59439e-09 9.5947e-09 9.59427e-09 5.0362e-09 5.04093e-09 9.59457e-09 9.59452e-09 5.59634e-09 5.64253e-09 3.42003e-09 3.41968e-09 3.28148e-09 3.30069e-09 9.5944e-09 9.5944e-09 9.1291e-09 8.94409e-09 9.57385e-09 9.54217e-09 9.54211e-09 9.65792e-09 9.5944e-09 9.5944e-09 9.1027e-09 9.09226e-09 9.5944e-09 9.5944e-09 9.5944e-09 9.5944e-09 9.5944e-09 9.5944e-09 9.60057e-09 9.59623e-09 9.5944e-09 9.5944e-09 9.5944e-09 9.5944e-09 9.5944e-09 1.02138e-08 1.02138e-08 9.5944e-09 9.5944e-09 9.5944e-09 9.59446e-09 9.60662e-09 9.60726e-09 9.59447e-09 9.5944e-09 9.5944e-09 9.5944e-09 9.5944e-09 1.08253e-08 9.5944e-09 9.5944e-09 9.5944e-09 9.5944e-09 9.5944e-09 9.5944e-09 9.5944e-09 9.59441e-09 9.59828e-09 9.59463e-09 9.92628e-09 9.6263e-09 
        </DataArray>
        <DataArray type="Float32" Name="F1_Alpha_SG_co2gas_mod.xml" format="ascii">
1 1 1 1 1 1 1 1 1 1 1 1 1 1 1 1 1 1 1 1 1 1 1 1 1 1 1 1 1 1 1 1 1 1 1 1 1 1 1 1 1 1 1 1 1 1 1 1 1 1 1 1 1 1 1 1 1 1 1 1 1 1 1 1 1 
        </DataArray>
        <DataArray type="Float32" Name="F1_Density_SG_co2gas_mod.xml" format="ascii">
106.138 106.138 106.134 106.139 205.484 205.285 106.136 106.136 184.297 182.743 307.547 307.58 321.154 319.191 106.138 106.138 111.649 114.003 106.37 106.729 106.73 105.427 106.138 106.138 111.979 112.11 106.138 106.138 106.138 106.138 106.138 106.138 106.068 106.117 106.138 106.138 106.138 106.138 106.138 99.5928 99.5929 106.138 106.138 106.138 106.137 106 105.993 106.137 106.138 106.138 106.138 106.138 93.876 106.138 106.138 106.138 106.138 106.138 106.138 106.138 106.138 106.094 106.135 102.528 105.78 
        </DataArray>
        <DataArray type="Float32" Name="F1_Temperature_SG_co2gas_mod.xml" format="ascii">
466.385 466.385 466.384 466.386 444.322 444.272 466.385 466.385 448.882 449.634 382.784 382.788 389.832 389.888 466.385 466.385 468.567 469.152 466.449 466.553 466.552 466.203 466.385 466.385 469.407 469.464 466.385 466.385 466.385 466.385 466.385 466.385 466.367 466.38 466.385 466.385 466.385 466.385 466.385 464.672 464.672 466.385 466.385 466.385 466.385 466.349 466.347 466.385 466.385 466.385 466.385 466.385 468.471 466.385 466.385 466.385 466.385 466.385 466.385 466.385 466.385 466.374 466.385 465.43 466.293 
        </DataArray>
        <DataArray type="Float32" Name="F1_Mass fraction_SG_co2gas_mod.xml" format="ascii">
1 1 1 1 1 1 1 1 1 1 1 1 1 1 1 1 1 1 1 1 1 1 1 1 1 1 1 1 1 1 1 1 1 1 1 1 1 1 1 1 1 1 1 1 1 1 1 1 1 1 1 1 1 1 1 1 1 1 1 1 1 1 1 1 1 
        </DataArray>
        <DataArray type="Float32" Name="Density_Mixture" format="ascii">
106.138 106.138 106.134 106.139 205.484 205.285 106.136 106.136 184.297 182.743 307.547 307.58 321.154 319.191 106.138 106.138 111.649 114.003 106.37 106.729 106.73 105.427 106.138 106.138 111.979 112.11 106.138 106.138 106.138 106.138 106.138 106.138 106.068 106.117 106.138 106.138 106.138 106.138 106.138 99.5928 99.5929 106.138 106.138 106.138 106.137 106 105.993 106.137 106.138 106.138 106.138 106.138 93.876 106.138 106.138 106.138 106.138 106.138 106.138 106.138 106.138 106.094 106.135 102.528 105.78 
        </DataArray>
        <DataArray type="Float32" Name="Pressure_Mixture" format="ascii">
6.27186e+06 6.27186e+06 6.27162e+06 6.27196e+06 1.23161e+07 1.23018e+07 6.27172e+06 6.27176e+06 1.10764e+07 1.09954e+07 1.61369e+07 1.61389e+07 1.72174e+07 1.71093e+07 6.27186e+06 6.27186e+06 6.67877e+06 6.84789e+06 6.28848e+06 6.31433e+06 6.31437e+06 6.22116e+06 6.27186e+06 6.27186e+06 6.71472e+06 6.72454e+06 6.27186e+06 6.27186e+06 6.27186e+06 6.27186e+06 6.27186e+06 6.27186e+06 6.26689e+06 6.27039e+06 6.27186e+06 6.27186e+06 6.27186e+06 6.27186e+06 6.27186e+06 5.8058e+06 5.8058e+06 6.27186e+06 6.27186e+06 6.27186e+06 6.27181e+06 6.26203e+06 6.26152e+06 6.2718e+06 6.27186e+06 6.27186e+06 6.27186e+06 6.27186e+06 5.47324e+06 6.27186e+06 6.27186e+06 6.27186e+06 6.27186e+06 6.27186e+06 6.27186e+06 6.27186e+06 6.27185e+06 6.26873e+06 6.27167e+06 6.01423e+06 6.2463e+06 
        </DataArray>
        <DataArray type="Float32" Name="Velocity_Mixture" NumberOfComponents="3" format="ascii">
-3.94817e-05 0 0 0.000179113 3.4254e-06 0 -0.0057584 0.00644997 0 0.00215808 0.00373897 0 183.672 -18.7212 0 183.996 19.6411 0 -0.00395876 0.00237643 0 -0.00305283 -0.00150147 0 159.232 40.9537 0 157.607 -34.6162 0 308.831 1.05912 0 308.808 -1.07485 0 288.919 -27.8723 0 282.552 47.4057 0 0 0 0 0 0 0 14.7778 0.56906 0 14.1091 4.35186 0 0.491063 -0.284422 0 1.42698 -0.657005 0 1.38717 0.664584 0 -1.37792 -1.46303 0 0 0 0 0 0 0 16.8902 -4.42145 0 17.2319 4.78424 0 0 0 0 0 0 0 0 0 0 0 0 0 0 0 0 0 0 0 -0.119212 0.00276698 0 -0.0623608 -0.0139001 0 0 0 0 0 0 0 0 0 0 0 0 0 0 0 0 3.70426 -1.47131 0 3.70426 1.47131 0 0 0 0 0 0 0 0 0 0 0.00023175 -0.000599497 0 0.055023 -0.0833245 0 0.0638885 0.0823288 0 0.000288151 0.000649314 0 0 0 0 0 0 0 0 0 0 0 0 0 28.0422 0 0 0 0 0 0 0 0 0 0 0 0 0 0 0 0 0 0 0 0 8.42111e-06 0 0 6.86927e-05 1.12734e-05 0 0.027307 0.00582708 0 0.00939417 -0.00037342 0 2.75243 -5.91006e-05 0 1.47063 -0.0575943 0 
        </DataArray>
        <DataArray type="Float32" Name="gradRho" format="ascii">
0.000963177 0.00041032 0.00594512 0.0210076 59.767 59.9126 0.229248 0.228102 53.7854 54.743 70.8868 71.0421 32.6774 31.8471 2.29693e-05 5.09428e-06 24.4946 24.8534 1.65065 2.1933 2.00132 2.16477 1.33531e-07 4.8926e-07 33.6329 33.7167 0 3.7661e-11 0 1.22014e-08 7.17831e-10 0 0.23277 0.0864828 0 0 0 0 0 0.949736 0.94974 0 1.4405e-09 1.09271e-06 0.00040575 0.0397392 0.0367746 0.000366605 9.64243e-07 1.43185e-09 0 0 0.82422 0 0 0 9.01732e-12 1.77805e-07 5.53512e-08 4.25299e-05 0.000106136 0.0240299 0.014578 1.42036 1.15915 
        </DataArray>
      </CellData>
    </Piece>
  </UnstructuredGrid>
</VTKFile>
