<?xml version="1.0"?>
<VTKFile type="UnstructuredGrid" version="0.1" byte_order="LittleEndian">
  <UnstructuredGrid>
    <Piece NumberOfPoints="50" NumberOfCells="65">
      <Points>
        <DataArray type="Float32" NumberOfComponents="3" format="ascii">
          0 5 0 0 -5 0 15 0.2 0 15 -0.2 0 35 0.2 0 35 -0.2 0 2.14286 4.31429 0 4.28571 3.62857 0 6.42857 2.94286 0 8.57143 2.25714 0 10.7143 1.57143 0 12.8571 0.885714 0 17.8571 0.2 0 20.7143 0.2 0 23.5714 0.2 0 26.4286 0.2 0 29.2857 0.2 0 32.1429 0.2 0 32.1429 -0.2 0 29.2857 -0.2 0 26.4286 -0.2 0 23.5714 -0.2 0 20.7143 -0.2 0 17.8571 -0.2 0 12.8571 -0.885714 0 10.7143 -1.57143 0 8.57143 -2.25714 0 6.42857 -2.94286 0 4.28571 -3.62857 0 2.14286 -4.31429 0 0 -2.5 0 0 -6.16307e-12 0 0 2.5 0 3.95974 -5.7158e-13 0 13.9286 -3.66374e-15 0 6.61813 2.81487e-12 0 2.86365 2.0434 0 2.86365 -2.0434 0 9.43036 1.987e-12 0 11.3926 2.79508e-14 0 4.83116 1.72297 0 4.83116 -1.72297 0 1.90629 -3.21031e-12 0 33.5714 0 0 16.4286 -1.80625e-18 0 25 6.93889e-18 0 19.2857 -6.93889e-18 0 30.7143 0 0 22.1429 0 0 27.8571 0 0 
        </DataArray>
      </Points>
      <Cells>
        <DataArray type="Int32" Name="connectivity" format="ascii">
          8 9 35 26 27 35 8 35 40 27 41 35 30 42 37 32 36 42 33 40 35 33 35 41 29 30 37 6 36 32 30 31 42 31 32 42 0 6 32 30 29 1 26 35 38 9 38 35 6 7 36 28 29 37 7 40 36 33 41 37 33 36 40 28 37 41 9 10 38 25 26 38 33 42 36 33 37 42 11 34 24 24 25 39 10 11 39 25 38 39 10 39 38 11 24 39 27 28 41 7 8 40 2 34 11 3 24 34 2 3 34 2 44 12 3 23 44 4 17 43 5 43 18 12 46 13 13 48 14 14 45 15 15 49 16 16 47 17 18 47 19 19 49 20 20 45 21 21 48 22 22 46 23 2 3 44 4 43 5 12 44 23 12 23 46 13 46 22 13 22 48 14 21 45 14 48 21 15 45 20 15 20 49 16 19 47 16 49 19 17 18 43 17 47 18 
        </DataArray>
        <DataArray type="Int32" Name="offsets" format="ascii">
          3 6 9 12 15 18 21 24 27 30 33 36 39 42 45 48 51 54 57 60 63 66 69 72 75 78 81 84 87 90 93 96 99 102 105 108 111 114 117 120 123 126 129 132 135 138 141 144 147 150 153 156 159 162 165 168 171 174 177 180 183 186 189 192 195 
        </DataArray>
        <DataArray type="UInt8" Name="types" format="ascii">
          5 5 5 5 5 5 5 5 5 5 5 5 5 5 5 5 5 5 5 5 5 5 5 5 5 5 5 5 5 5 5 5 5 5 5 5 5 5 5 5 5 5 5 5 5 5 5 5 5 5 5 5 5 5 5 5 5 5 5 5 5 5 5 5 5 
        </DataArray>
      </Cells>
      <CellData>
        <DataArray type="Float32" Name="F0_Alpha_SG_co2liq_mod.xml" format="ascii">
1.68667e-10 1.68106e-10 1.64772e-10 1.65186e-10 1.64981e-10 1.64894e-10 1.64012e-10 1.63657e-10 1.63275e-10 1.63237e-10 1.67782e-10 1.67782e-10 1.60655e-10 1.60955e-10 1.7206e-10 1.71621e-10 1.62266e-10 1.62521e-10 1.61787e-10 1.62494e-10 1.63105e-10 1.61281e-10 1.72608e-10 1.72706e-10 1.63873e-10 1.63894e-10 1.72682e-10 1.72682e-10 1.72688e-10 1.72688e-10 1.72693e-10 1.72683e-10 1.61908e-10 1.61948e-10 1.72682e-10 1.72682e-10 1.72682e-10 1.72682e-10 1.72682e-10 1.73381e-10 1.73381e-10 1.72682e-10 1.72683e-10 1.72692e-10 1.72758e-10 1.73003e-10 1.73003e-10 1.72758e-10 1.72692e-10 1.72683e-10 1.72682e-10 1.72682e-10 1.73409e-10 1.72682e-10 1.72682e-10 1.72682e-10 1.72682e-10 1.72688e-10 1.72683e-10 1.72696e-10 1.72737e-10 1.72941e-10 1.7278e-10 1.73316e-10 1.73059e-10 
        </DataArray>
        <DataArray type="Float32" Name="F0_Density_SG_co2liq_mod.xml" format="ascii">
6124.94 6155.18 6342.77 6321.14 6522.53 6527.68 6449.51 6471.61 6639.88 6642.12 6347.78 6347.76 6826.36 6805.74 5934.87 5960.54 6661.89 6648.17 6639.96 6609.57 6575.4 6668.58 5901.79 5895.62 6556.19 6554.79 5897.13 5897.12 5896.74 5896.76 5896.44 5897.07 6550.64 6545.69 5897.13 5897.13 5897.13 5897.13 5897.13 5848.67 5848.67 5897.13 5897.08 5896.5 5892.27 5876.09 5876.09 5892.28 5896.5 5897.08 5897.13 5897.13 5842.75 5897.13 5897.13 5897.13 5897.1 5896.72 5897.05 5896.24 5893.62 5880.25 5890.82 5853.8 5872.14 
        </DataArray>
        <DataArray type="Float32" Name="F0_Temperature_SG_co2liq_mod.xml" format="ascii">
42.1824 42.2125 42.3491 42.3368 42.4291 42.4309 42.4009 42.41 42.465 42.4656 42.3519 42.3519 42.5041 42.5007 41.8843 41.9417 42.4706 42.4672 42.465 42.4567 42.4466 42.4723 41.7951 41.7759 42.4405 42.44 41.7807 41.7806 41.7794 41.7795 41.7785 41.7805 42.4387 42.437 41.7807 41.7807 41.7807 41.7807 41.7807 41.5863 41.5863 41.7807 41.7805 41.7787 41.7651 41.7081 41.7081 41.7651 41.7787 41.7805 41.7807 41.7807 41.5536 41.7807 41.7807 41.7807 41.7806 41.7794 41.7804 41.7779 41.7695 41.7236 41.7603 41.6123 41.6928 
        </DataArray>
        <DataArray type="Float32" Name="F0_Mass fraction_SG_co2liq_mod.xml" format="ascii">
5.26773e-09 5.00996e-09 3.81742e-09 3.90529e-09 2.33319e-09 2.32393e-09 3.00167e-09 2.93169e-09 2.1041e-09 2.10093e-09 2.74727e-09 2.74734e-09 1.82219e-09 1.84779e-09 8.30557e-09 7.64859e-09 2.16558e-09 2.18229e-09 2.34053e-09 2.35783e-09 2.41345e-09 2.29706e-09 9.4035e-09 9.65855e-09 2.36702e-09 2.37e-09 9.59424e-09 9.59483e-09 9.61085e-09 9.61004e-09 9.62352e-09 9.59696e-09 2.83351e-09 2.85829e-09 9.59435e-09 9.59439e-09 9.5944e-09 9.5944e-09 9.5944e-09 1.25156e-08 1.25155e-08 9.5945e-09 9.59644e-09 9.62084e-09 9.80494e-09 1.06067e-08 1.06068e-08 9.80444e-09 9.62089e-09 9.59645e-09 9.5945e-09 9.5944e-09 1.33256e-08 9.59441e-09 9.59445e-09 9.59458e-09 9.5956e-09 9.61166e-09 9.59766e-09 9.63217e-09 9.74529e-09 1.03832e-08 9.8705e-09 1.20801e-08 1.08363e-08 
        </DataArray>
        <DataArray type="Float32" Name="F1_Alpha_SG_co2gas_mod.xml" format="ascii">
1 1 1 1 1 1 1 1 1 1 1 1 1 1 1 1 1 1 1 1 1 1 1 1 1 1 1 1 1 1 1 1 1 1 1 1 1 1 1 1 1 1 1 1 1 1 1 1 1 1 1 1 1 1 1 1 1 1 1 1 1 1 1 1 1 
        </DataArray>
        <DataArray type="Float32" Name="F1_Density_SG_co2gas_mod.xml" format="ascii">
196.114 206.532 273.774 267.372 461.209 463.169 352.403 361.267 515.245 516.078 387.674 387.664 601.851 592.827 122.948 133.744 499.173 495.106 458.981 455.511 444.376 468.212 108.332 105.42 453.897 453.287 106.14 106.133 105.953 105.962 105.811 106.109 374.307 370.872 106.138 106.138 106.138 106.138 106.138 81.023 81.0234 106.137 106.115 105.841 103.819 95.8431 95.8424 103.824 105.84 106.115 106.137 106.138 76.0327 106.138 106.137 106.136 106.124 105.944 106.101 105.714 104.465 97.9409 103.117 83.9856 93.7804 
        </DataArray>
        <DataArray type="Float32" Name="F1_Temperature_SG_co2gas_mod.xml" format="ascii">
489.46 492.227 495.868 493.316 362.799 363.195 438.689 438.623 364.052 364.208 352.483 352.482 364.451 364.106 471.801 474.842 383.331 381.732 408.707 400.356 397.137 411.126 466.959 466.198 381.493 381.474 466.386 466.384 466.337 466.339 466.3 466.378 460.048 461.997 466.385 466.385 466.385 466.385 466.385 459.502 459.502 466.385 466.379 466.307 465.772 463.624 463.618 465.773 466.307 466.379 466.385 466.385 467.357 466.385 466.385 466.385 466.382 466.334 466.376 466.274 465.943 464.178 465.605 460.193 463.287 
        </DataArray>
        <DataArray type="Float32" Name="F1_Mass fraction_SG_co2gas_mod.xml" format="ascii">
1 1 1 1 1 1 1 1 1 1 1 1 1 1 1 1 1 1 1 1 1 1 1 1 1 1 1 1 1 1 1 1 1 1 1 1 1 1 1 1 1 1 1 1 1 1 1 1 1 1 1 1 1 1 1 1 1 1 1 1 1 1 1 1 1 
        </DataArray>
        <DataArray type="Float32" Name="Density_Mixture" format="ascii">
196.114 206.532 273.774 267.372 461.209 463.169 352.403 361.267 515.245 516.078 387.674 387.664 601.851 592.827 122.948 133.744 499.173 495.106 458.981 455.511 444.376 468.212 108.332 105.42 453.897 453.287 106.14 106.133 105.953 105.962 105.811 106.109 374.307 370.872 106.138 106.138 106.138 106.138 106.138 81.023 81.0234 106.137 106.115 105.841 103.819 95.8431 95.8424 103.824 105.84 106.115 106.137 106.138 76.0327 106.138 106.137 106.136 106.124 105.944 106.101 105.714 104.465 97.9409 103.117 83.9856 93.7804 
        </DataArray>
        <DataArray type="Float32" Name="Pressure_Mixture" format="ascii">
1.29942e+07 1.38141e+07 1.87443e+07 1.81866e+07 2.33094e+07 2.34387e+07 2.14685e+07 2.20274e+07 2.62375e+07 2.6293e+07 1.88733e+07 1.88728e+07 3.08313e+07 3.03262e+07 7.50182e+06 8.29716e+06 2.6783e+07 2.6443e+07 2.62393e+07 2.54842e+07 2.46327e+07 2.69486e+07 6.42882e+06 6.22062e+06 2.41527e+07 2.41178e+07 6.27198e+06 6.27151e+06 6.25864e+06 6.25929e+06 6.24851e+06 6.2698e+06 2.4014e+07 2.389e+07 6.2719e+06 6.27187e+06 6.27186e+06 6.27186e+06 6.27185e+06 4.49749e+06 4.49753e+06 6.27178e+06 6.27022e+06 6.25063e+06 6.10625e+06 5.53932e+06 5.53919e+06 6.10663e+06 6.25059e+06 6.27021e+06 6.27178e+06 6.27186e+06 4.25227e+06 6.27185e+06 6.27182e+06 6.27171e+06 6.2709e+06 6.25799e+06 6.26923e+06 6.24159e+06 6.15239e+06 5.68781e+06 6.05651e+06 4.70273e+06 5.39648e+06 
        </DataArray>
        <DataArray type="Float32" Name="Velocity_Mixture" NumberOfComponents="3" format="ascii">
181.852 -24.8886 0 166.275 48.6919 0 242.77 -38.1919 0 246.02 41.3747 0 321.318 29.6488 0 321.03 -31.3608 0 290.23 -16.1541 0 292.029 26.8038 0 303.446 50.8977 0 303.608 -51.5835 0 343.791 0.0580472 0 343.795 -0.055119 0 271.911 -42.802 0 273.309 46.0592 0 32.446 6.89295 0 66.2373 -19.3759 0 293.047 -71.4368 0 297.259 76.7209 0 295.25 -72.1141 0 290.347 45.5746 0 298.576 -39.3126 0 289.607 86.147 0 3.28224 -1.23598 0 -1.48597 0.501978 0 305.768 -17.2911 0 305.076 16.5865 0 0.00442874 -0.000723709 0 -0.000863689 0.00563227 0 -0.425753 -0.0389117 0 -0.317552 0.167143 0 -0.659406 0.754332 0 -0.0550003 0.0685064 0 283.679 86.9338 0 285.708 -71.9198 0 0.000874481 0.000281053 0 0.000212497 -5.81182e-05 0 0 -0.000116798 0 0 -1.37184e-05 0 0 1.49021e-05 0 35.9938 -0.583866 0 35.9981 0.585673 0 0.000531004 -0.000367197 0 0.01209 -0.00587307 0 0.170817 -0.0556741 0 1.5427 -0.283838 0 8.96666 -0.67778 0 8.95812 0.665563 0 1.56273 0.27386 0 0.177854 0.053459 0 0.0127959 0.00567187 0 0.000579108 0.000360132 0 0 0 0 72.7413 0.00233436 0 0.000290588 0 0 0.000481443 4.77286e-05 0 0.00896706 -0.000232775 0 0.012995 0.0011156 0 0.217156 0.0132689 0 0.164313 -0.00388367 0 1.87674 -0.0372939 0 2.29837 0.0640679 0 14.9926 0.0442631 0 12.5687 -0.0931498 0 57.643 -0.00195714 0 45.0046 -0.0487835 0 
        </DataArray>
        <DataArray type="Float32" Name="gradRho" format="ascii">
32.8081 31.8065 51.2197 48.8221 32.721 32.7432 52.9288 56.3761 39.9556 41.2056 51.0723 52.4386 20.2501 18.3164 26.8841 26.484 14.0507 12.1522 48.535 33.6702 36.2669 47.0631 9.17216 5.81615 6.24567 2.00572 0.0127342 0.0615744 0.0816139 0.231298 0.786809 0.078302 49.4273 45.7868 0.000556539 0.000747804 0.000262422 7.40222e-06 6.02995e-06 0.775378 0.775522 0.000138626 0.00200392 0.0176532 0.0982254 0.30005 0.300062 0.0986623 0.0175532 0.0019657 0.000134091 6.41735e-06 0.719504 0.000185985 0.000235095 0.00408378 0.00491964 0.064957 0.0563482 0.449193 0.498948 2.01331 1.87935 3.71293 3.62642 
        </DataArray>
      </CellData>
    </Piece>
  </UnstructuredGrid>
</VTKFile>
