<?xml version="1.0"?>
<VTKFile type="UnstructuredGrid" version="0.1" byte_order="LittleEndian">
  <UnstructuredGrid>
    <Piece NumberOfPoints="50" NumberOfCells="65">
      <Points>
        <DataArray type="Float32" NumberOfComponents="3" format="ascii">
          0 5 0 0 -5 0 15 0.2 0 15 -0.2 0 35 0.2 0 35 -0.2 0 2.14286 4.31429 0 4.28571 3.62857 0 6.42857 2.94286 0 8.57143 2.25714 0 10.7143 1.57143 0 12.8571 0.885714 0 17.8571 0.2 0 20.7143 0.2 0 23.5714 0.2 0 26.4286 0.2 0 29.2857 0.2 0 32.1429 0.2 0 32.1429 -0.2 0 29.2857 -0.2 0 26.4286 -0.2 0 23.5714 -0.2 0 20.7143 -0.2 0 17.8571 -0.2 0 12.8571 -0.885714 0 10.7143 -1.57143 0 8.57143 -2.25714 0 6.42857 -2.94286 0 4.28571 -3.62857 0 2.14286 -4.31429 0 0 -2.5 0 0 -6.16307e-12 0 0 2.5 0 3.95974 -5.7158e-13 0 13.9286 -3.66374e-15 0 6.61813 2.81487e-12 0 2.86365 2.0434 0 2.86365 -2.0434 0 9.43036 1.987e-12 0 11.3926 2.79508e-14 0 4.83116 1.72297 0 4.83116 -1.72297 0 1.90629 -3.21031e-12 0 33.5714 0 0 16.4286 -1.80625e-18 0 25 6.93889e-18 0 19.2857 -6.93889e-18 0 30.7143 0 0 22.1429 0 0 27.8571 0 0 
        </DataArray>
      </Points>
      <Cells>
        <DataArray type="Int32" Name="connectivity" format="ascii">
          8 9 35 26 27 35 8 35 40 27 41 35 30 42 37 32 36 42 33 40 35 33 35 41 29 30 37 6 36 32 30 31 42 31 32 42 0 6 32 30 29 1 26 35 38 9 38 35 6 7 36 28 29 37 7 40 36 33 41 37 33 36 40 28 37 41 9 10 38 25 26 38 33 42 36 33 37 42 11 34 24 24 25 39 10 11 39 25 38 39 10 39 38 11 24 39 27 28 41 7 8 40 2 34 11 3 24 34 2 3 34 2 44 12 3 23 44 4 17 43 5 43 18 12 46 13 13 48 14 14 45 15 15 49 16 16 47 17 18 47 19 19 49 20 20 45 21 21 48 22 22 46 23 2 3 44 4 43 5 12 44 23 12 23 46 13 46 22 13 22 48 14 21 45 14 48 21 15 45 20 15 20 49 16 19 47 16 49 19 17 18 43 17 47 18 
        </DataArray>
        <DataArray type="Int32" Name="offsets" format="ascii">
          3 6 9 12 15 18 21 24 27 30 33 36 39 42 45 48 51 54 57 60 63 66 69 72 75 78 81 84 87 90 93 96 99 102 105 108 111 114 117 120 123 126 129 132 135 138 141 144 147 150 153 156 159 162 165 168 171 174 177 180 183 186 189 192 195 
        </DataArray>
        <DataArray type="UInt8" Name="types" format="ascii">
          5 5 5 5 5 5 5 5 5 5 5 5 5 5 5 5 5 5 5 5 5 5 5 5 5 5 5 5 5 5 5 5 5 5 5 5 5 5 5 5 5 5 5 5 5 5 5 5 5 5 5 5 5 5 5 5 5 5 5 5 5 5 5 5 5 
        </DataArray>
      </Cells>
      <CellData>
        <DataArray type="Float32" Name="F0_Alpha_SG_co2liq_mod.xml" format="ascii">
1.72682e-10 1.72682e-10 1.72682e-10 1.72682e-10 1.68894e-10 1.6891e-10 1.72682e-10 1.72682e-10 1.69677e-10 1.69692e-10 1.68269e-10 1.68268e-10 1.6721e-10 1.67303e-10 1.72682e-10 1.72682e-10 1.72309e-10 1.72142e-10 1.72654e-10 1.72625e-10 1.72624e-10 1.72716e-10 1.72682e-10 1.72682e-10 1.72246e-10 1.72238e-10 1.72682e-10 1.72682e-10 1.72682e-10 1.72682e-10 1.72682e-10 1.72682e-10 1.72687e-10 1.72682e-10 1.72682e-10 1.72682e-10 1.72682e-10 1.72682e-10 1.72682e-10 1.72925e-10 1.72925e-10 1.72682e-10 1.72682e-10 1.72682e-10 1.72682e-10 1.7269e-10 1.7269e-10 1.72682e-10 1.72682e-10 1.72682e-10 1.72682e-10 1.72682e-10 1.73026e-10 1.72682e-10 1.72682e-10 1.72682e-10 1.72682e-10 1.72682e-10 1.72682e-10 1.72682e-10 1.72682e-10 1.72685e-10 1.72682e-10 1.72831e-10 1.727e-10 
        </DataArray>
        <DataArray type="Float32" Name="F0_Density_SG_co2liq_mod.xml" format="ascii">
5897.13 5897.13 5897.12 5897.13 6151.95 6151 5897.12 5897.13 6099.69 6097.85 6264.91 6264.97 6323.6 6317.52 5897.13 5897.13 5919.98 5930.21 5898.9 5900.73 5900.82 5894.94 5897.13 5897.13 5923.41 5923.87 5897.13 5897.13 5897.13 5897.13 5897.13 5897.13 5896.8 5897.1 5897.13 5897.13 5897.13 5897.13 5897.13 5881.34 5881.34 5897.13 5897.13 5897.13 5897.13 5896.64 5896.63 5897.13 5897.13 5897.13 5897.13 5897.13 5872.22 5897.13 5897.13 5897.13 5897.13 5897.13 5897.13 5897.13 5897.13 5896.95 5897.12 5887.51 5896.01 
        </DataArray>
        <DataArray type="Float32" Name="F0_Temperature_SG_co2liq_mod.xml" format="ascii">
41.7807 41.7807 41.7806 41.7807 42.2095 42.2086 41.7807 41.7807 42.1547 42.1526 42.3011 42.3011 42.3382 42.3346 41.7807 41.7807 41.8466 41.8729 41.7862 41.7918 41.7921 41.7737 41.7807 41.7807 41.8556 41.8568 41.7807 41.7807 41.7807 41.7807 41.7807 41.7807 41.7796 41.7806 41.7807 41.7807 41.7807 41.7807 41.7807 41.7275 41.7275 41.7807 41.7807 41.7807 41.7807 41.7791 41.7791 41.7807 41.7807 41.7807 41.7807 41.7807 41.6931 41.7807 41.7807 41.7807 41.7807 41.7807 41.7807 41.7807 41.7807 41.7801 41.7806 41.7492 41.7771 
        </DataArray>
        <DataArray type="Float32" Name="F0_Mass fraction_SG_co2liq_mod.xml" format="ascii">
9.59441e-09 9.59438e-09 9.59501e-09 9.5942e-09 4.49672e-09 4.50342e-09 9.59462e-09 9.59454e-09 5.02081e-09 5.05161e-09 3.27348e-09 3.27325e-09 3.08173e-09 3.10566e-09 9.5944e-09 9.5944e-09 8.76034e-09 8.43378e-09 9.52103e-09 9.44693e-09 9.4434e-09 9.68764e-09 9.5944e-09 9.5944e-09 8.66514e-09 8.65066e-09 9.5944e-09 9.5944e-09 9.5944e-09 9.5944e-09 9.5944e-09 9.5944e-09 9.6082e-09 9.59568e-09 9.5944e-09 9.5944e-09 9.5944e-09 9.5944e-09 9.5944e-09 1.0328e-08 1.0328e-08 9.5944e-09 9.5944e-09 9.5944e-09 9.59455e-09 9.61503e-09 9.6157e-09 9.59457e-09 9.5944e-09 9.5944e-09 9.5944e-09 9.5944e-09 1.09575e-08 9.5944e-09 9.5944e-09 9.5944e-09 9.5944e-09 9.5944e-09 9.5944e-09 9.5944e-09 9.59444e-09 9.60207e-09 9.59493e-09 1.00233e-08 9.64188e-09 
        </DataArray>
        <DataArray type="Float32" Name="F1_Alpha_SG_co2gas_mod.xml" format="ascii">
1 1 1 1 1 1 1 1 1 1 1 1 1 1 1 1 1 1 1 1 1 1 1 1 1 1 1 1 1 1 1 1 1 1 1 1 1 1 1 1 1 1 1 1 1 1 1 1 1 1 1 1 1 1 1 1 1 1 1 1 1 1 1 1 1 
        </DataArray>
        <DataArray type="Float32" Name="F1_Density_SG_co2gas_mod.xml" format="ascii">
106.138 106.138 106.131 106.14 231.063 230.707 106.135 106.136 206.138 204.838 322.04 322.063 343.109 340.327 106.138 106.138 116.441 121.041 106.97 107.825 107.866 105.098 106.138 106.138 117.745 117.946 106.138 106.138 106.138 106.138 106.138 106.138 105.983 106.123 106.138 106.138 106.138 106.138 106.138 98.473 98.473 106.138 106.138 106.138 106.136 105.906 105.898 106.136 106.138 106.138 106.138 106.138 92.7255 106.138 106.138 106.138 106.138 106.138 106.138 106.138 106.137 106.051 106.132 101.518 105.606 
        </DataArray>
        <DataArray type="Float32" Name="F1_Temperature_SG_co2gas_mod.xml" format="ascii">
466.385 466.385 466.384 466.386 437.365 437.274 466.385 466.385 442.438 443.532 378.189 378.192 385.702 385.662 466.385 466.385 469.946 470.819 466.616 466.879 466.888 466.118 466.385 466.385 471.229 471.294 466.385 466.385 466.385 466.385 466.385 466.385 466.345 466.382 466.385 466.385 466.385 466.385 466.385 464.374 464.374 466.385 466.385 466.385 466.385 466.324 466.322 466.385 466.385 466.385 466.385 466.385 468.759 466.385 466.385 466.385 466.385 466.385 466.385 466.385 466.385 466.363 466.384 465.16 466.248 
        </DataArray>
        <DataArray type="Float32" Name="F1_Mass fraction_SG_co2gas_mod.xml" format="ascii">
1 1 1 1 1 1 1 1 1 1 1 1 1 1 1 1 1 1 1 1 1 1 1 1 1 1 1 1 1 1 1 1 1 1 1 1 1 1 1 1 1 1 1 1 1 1 1 1 1 1 1 1 1 1 1 1 1 1 1 1 1 1 1 1 1 
        </DataArray>
        <DataArray type="Float32" Name="Density_Mixture" format="ascii">
106.138 106.138 106.131 106.14 231.063 230.707 106.135 106.136 206.138 204.838 322.04 322.063 343.109 340.327 106.138 106.138 116.441 121.041 106.97 107.825 107.866 105.098 106.138 106.138 117.745 117.946 106.138 106.138 106.138 106.138 106.138 106.138 105.983 106.123 106.138 106.138 106.138 106.138 106.138 98.473 98.473 106.138 106.138 106.138 106.136 105.906 105.898 106.136 106.138 106.138 106.138 106.138 92.7255 106.138 106.138 106.138 106.138 106.138 106.138 106.138 106.137 106.051 106.132 101.518 105.606 
        </DataArray>
        <DataArray type="Float32" Name="Pressure_Mixture" format="ascii">
6.27185e+06 6.27188e+06 6.27137e+06 6.27202e+06 1.37271e+07 1.37015e+07 6.27168e+06 6.27174e+06 1.2302e+07 1.22512e+07 1.67251e+07 1.67265e+07 1.82501e+07 1.80929e+07 6.27186e+06 6.27186e+06 7.02666e+06 7.35455e+06 6.33158e+06 6.39333e+06 6.39624e+06 6.19768e+06 6.27186e+06 6.27186e+06 7.13714e+06 7.15194e+06 6.27186e+06 6.27186e+06 6.27186e+06 6.27186e+06 6.27186e+06 6.27186e+06 6.26077e+06 6.27082e+06 6.27186e+06 6.27186e+06 6.27186e+06 6.27186e+06 6.27186e+06 5.72631e+06 5.72631e+06 6.27186e+06 6.27186e+06 6.27186e+06 6.27173e+06 6.25529e+06 6.25475e+06 6.27172e+06 6.27186e+06 6.27186e+06 6.27186e+06 6.27186e+06 5.39918e+06 6.27186e+06 6.27186e+06 6.27186e+06 6.27186e+06 6.27186e+06 6.27186e+06 6.27186e+06 6.27183e+06 6.26569e+06 6.27143e+06 5.94232e+06 6.23389e+06 
        </DataArray>
        <DataArray type="Float32" Name="Velocity_Mixture" NumberOfComponents="3" format="ascii">
-0.000372659 -5.50459e-06 0 0.000517773 4.79168e-05 0 -0.0118527 0.0132557 0 0.00354287 0.0065813 0 209.811 -16.8085 0 210.26 17.9772 0 -0.00448643 0.00350076 0 -0.00377712 -0.00178038 0 187.806 43.9841 0 185.529 -36.9161 0 317.255 0.859576 0 317.241 -0.868553 0 295.634 -31.5147 0 289.685 50.1603 0 0 0 0 -1.03833e-06 0 0 28.1038 0.64157 0 26.3333 9.72943 0 1.83387 -1.00169 0 4.16988 -1.6551 0 4.08712 1.66175 0 -2.04676 -2.61762 0 0 0 0 0 0 0 32.4876 -7.47478 0 33.0055 8.13009 0 0 0 0 0 0 0 0 0 0 0 0 0 0 0 0 0 0 0 -0.256303 -0.0140808 0 -0.0834488 -0.0305242 0 0 0 0 0 0 0 0 0 0 0 0 0 0 0 0 4.56145 -1.447 0 4.56145 1.44701 0 0 0 0 0 0 0 0 0 0 0.000654489 -0.00139829 0 0.0970454 -0.118243 0 0.110296 0.114889 0 0.000786532 0.00146873 0 0 0 0 0 0 0 0 0 0 0 0 0 31.6102 1.03584e-05 0 0 0 0 0 0 0 0 0 0 0 0 0 0 0 0 0 0 0 6.08279e-05 0 0 0.000244064 5.19134e-05 0 0.0561235 0.0112445 0 0.0225089 -0.000873133 0 3.85408 -0.00014518 0 2.26892 -0.0836144 0 
        </DataArray>
        <DataArray type="Float32" Name="gradRho" format="ascii">
0.00195192 0.00063192 0.00402098 0.0471551 62.8038 62.9236 0.667919 0.650465 58.4474 60.4616 63.1869 63.4462 32.6445 31.6807 6.94163e-05 4.07236e-05 31.0046 31.1516 3.04956 4.32648 3.97413 4.06865 1.40387e-06 1.95846e-06 41.7933 41.9499 0 9.49984e-10 1.48512e-10 8.03748e-08 8.1024e-09 0 0.328762 0.295639 0 0 0 0 0 0.941162 0.941175 0 6.26653e-09 4.03022e-06 0.000843418 0.0511407 0.0481989 0.000767013 3.53398e-06 5.31269e-09 0 0 0.828639 0 0 0 1.09594e-09 7.96221e-07 3.15972e-07 0.000138309 0.000286579 0.0426506 0.0285237 1.72338 1.45919 
        </DataArray>
      </CellData>
    </Piece>
  </UnstructuredGrid>
</VTKFile>
