<?xml version="1.0"?>
<VTKFile type="UnstructuredGrid" version="0.1" byte_order="LittleEndian">
  <UnstructuredGrid>
    <Piece NumberOfPoints="50" NumberOfCells="65">
      <Points>
        <DataArray type="Float32" NumberOfComponents="3" format="ascii">
          0 5 0 0 -5 0 15 0.2 0 15 -0.2 0 35 0.2 0 35 -0.2 0 2.14286 4.31429 0 4.28571 3.62857 0 6.42857 2.94286 0 8.57143 2.25714 0 10.7143 1.57143 0 12.8571 0.885714 0 17.8571 0.2 0 20.7143 0.2 0 23.5714 0.2 0 26.4286 0.2 0 29.2857 0.2 0 32.1429 0.2 0 32.1429 -0.2 0 29.2857 -0.2 0 26.4286 -0.2 0 23.5714 -0.2 0 20.7143 -0.2 0 17.8571 -0.2 0 12.8571 -0.885714 0 10.7143 -1.57143 0 8.57143 -2.25714 0 6.42857 -2.94286 0 4.28571 -3.62857 0 2.14286 -4.31429 0 0 -2.5 0 0 -6.16307e-12 0 0 2.5 0 3.95974 -5.7158e-13 0 13.9286 -3.66374e-15 0 6.61813 2.81487e-12 0 2.86365 2.0434 0 2.86365 -2.0434 0 9.43036 1.987e-12 0 11.3926 2.79508e-14 0 4.83116 1.72297 0 4.83116 -1.72297 0 1.90629 -3.21031e-12 0 33.5714 0 0 16.4286 -1.80625e-18 0 25 6.93889e-18 0 19.2857 -6.93889e-18 0 30.7143 0 0 22.1429 0 0 27.8571 0 0 
        </DataArray>
      </Points>
      <Cells>
        <DataArray type="Int32" Name="connectivity" format="ascii">
          8 9 35 26 27 35 8 35 40 27 41 35 30 42 37 32 36 42 33 40 35 33 35 41 29 30 37 6 36 32 30 31 42 31 32 42 0 6 32 30 29 1 26 35 38 9 38 35 6 7 36 28 29 37 7 40 36 33 41 37 33 36 40 28 37 41 9 10 38 25 26 38 33 42 36 33 37 42 11 34 24 24 25 39 10 11 39 25 38 39 10 39 38 11 24 39 27 28 41 7 8 40 2 34 11 3 24 34 2 3 34 2 44 12 3 23 44 4 17 43 5 43 18 12 46 13 13 48 14 14 45 15 15 49 16 16 47 17 18 47 19 19 49 20 20 45 21 21 48 22 22 46 23 2 3 44 4 43 5 12 44 23 12 23 46 13 46 22 13 22 48 14 21 45 14 48 21 15 45 20 15 20 49 16 19 47 16 49 19 17 18 43 17 47 18 
        </DataArray>
        <DataArray type="Int32" Name="offsets" format="ascii">
          3 6 9 12 15 18 21 24 27 30 33 36 39 42 45 48 51 54 57 60 63 66 69 72 75 78 81 84 87 90 93 96 99 102 105 108 111 114 117 120 123 126 129 132 135 138 141 144 147 150 153 156 159 162 165 168 171 174 177 180 183 186 189 192 195 
        </DataArray>
        <DataArray type="UInt8" Name="types" format="ascii">
          5 5 5 5 5 5 5 5 5 5 5 5 5 5 5 5 5 5 5 5 5 5 5 5 5 5 5 5 5 5 5 5 5 5 5 5 5 5 5 5 5 5 5 5 5 5 5 5 5 5 5 5 5 5 5 5 5 5 5 5 5 5 5 5 5 
        </DataArray>
      </Cells>
      <CellData>
        <DataArray type="Float32" Name="F0_Alpha_SG_co2liq_mod.xml" format="ascii">
1.72682e-10 1.72682e-10 1.72682e-10 1.72682e-10 1.69991e-10 1.69998e-10 1.72682e-10 1.72682e-10 1.70605e-10 1.70648e-10 1.68623e-10 1.68621e-10 1.67964e-10 1.68012e-10 1.72682e-10 1.72682e-10 1.72542e-10 1.72488e-10 1.7268e-10 1.72672e-10 1.72672e-10 1.72699e-10 1.72682e-10 1.72682e-10 1.72534e-10 1.72531e-10 1.72682e-10 1.72682e-10 1.72682e-10 1.72682e-10 1.72682e-10 1.72682e-10 1.72683e-10 1.72683e-10 1.72682e-10 1.72682e-10 1.72682e-10 1.72682e-10 1.72682e-10 1.72874e-10 1.72874e-10 1.72682e-10 1.72682e-10 1.72682e-10 1.72682e-10 1.72685e-10 1.72686e-10 1.72682e-10 1.72682e-10 1.72682e-10 1.72682e-10 1.72682e-10 1.72986e-10 1.72682e-10 1.72682e-10 1.72682e-10 1.72682e-10 1.72682e-10 1.72682e-10 1.72682e-10 1.72682e-10 1.72683e-10 1.72682e-10 1.72784e-10 1.72692e-10 
        </DataArray>
        <DataArray type="Float32" Name="F0_Density_SG_co2liq_mod.xml" format="ascii">
5897.13 5897.13 5897.13 5897.13 6076.52 6076.13 5897.13 5897.13 6036.1 6033.04 6230.17 6230.26 6263.81 6260.49 5897.13 5897.13 5905.71 5909.04 5897.28 5897.78 5897.77 5896.03 5897.13 5897.13 5905.95 5906.18 5897.13 5897.13 5897.13 5897.13 5897.13 5897.13 5897.04 5897.08 5897.13 5897.13 5897.13 5897.13 5897.13 5884.67 5884.67 5897.13 5897.13 5897.13 5897.13 5896.91 5896.9 5897.13 5897.13 5897.13 5897.13 5897.13 5875.24 5897.13 5897.13 5897.13 5897.13 5897.13 5897.13 5897.13 5897.13 5897.07 5897.13 5890.55 5896.52 
        </DataArray>
        <DataArray type="Float32" Name="F0_Temperature_SG_co2liq_mod.xml" format="ascii">
41.7807 41.7807 41.7807 41.7807 42.1271 42.1266 41.7807 41.7807 42.0727 42.0683 42.2761 42.2762 42.3003 42.298 41.7807 41.7807 41.8068 41.8165 41.7811 41.7827 41.7827 41.7772 41.7807 41.7807 41.8075 41.8081 41.7807 41.7807 41.7807 41.7807 41.7807 41.7807 41.7804 41.7805 41.7807 41.7807 41.7807 41.7807 41.7807 41.7394 41.7394 41.7807 41.7807 41.7807 41.7807 41.78 41.7799 41.7807 41.7807 41.7807 41.7807 41.7807 41.7049 41.7807 41.7807 41.7807 41.7807 41.7807 41.7807 41.7807 41.7807 41.7805 41.7807 41.7594 41.7788 
        </DataArray>
        <DataArray type="Float32" Name="F0_Mass fraction_SG_co2liq_mod.xml" format="ascii">
9.5944e-09 9.5944e-09 9.59458e-09 9.59433e-09 5.32826e-09 5.33229e-09 9.59454e-09 9.5945e-09 5.89807e-09 5.94986e-09 3.50444e-09 3.50404e-09 3.3922e-09 3.40909e-09 9.5944e-09 9.5944e-09 9.26156e-09 9.13683e-09 9.58808e-09 9.56738e-09 9.56779e-09 9.64115e-09 9.5944e-09 9.5944e-09 9.26303e-09 9.25484e-09 9.5944e-09 9.5944e-09 9.5944e-09 9.5944e-09 9.5944e-09 9.5944e-09 9.59805e-09 9.59639e-09 9.5944e-09 9.5944e-09 9.5944e-09 9.5944e-09 9.5944e-09 1.01609e-08 1.01609e-08 9.5944e-09 9.5944e-09 9.5944e-09 9.59443e-09 9.6036e-09 9.60419e-09 9.59444e-09 9.5944e-09 9.5944e-09 9.5944e-09 9.5944e-09 1.07629e-08 9.5944e-09 9.5944e-09 9.5944e-09 9.5944e-09 9.5944e-09 9.5944e-09 9.5944e-09 9.59441e-09 9.59708e-09 9.59455e-09 9.88258e-09 9.62014e-09 
        </DataArray>
        <DataArray type="Float32" Name="F1_Alpha_SG_co2gas_mod.xml" format="ascii">
1 1 1 1 1 1 1 1 1 1 1 1 1 1 1 1 1 1 1 1 1 1 1 1 1 1 1 1 1 1 1 1 1 1 1 1 1 1 1 1 1 1 1 1 1 1 1 1 1 1 1 1 1 1 1 1 1 1 1 1 1 1 1 1 1 
        </DataArray>
        <DataArray type="Float32" Name="F1_Density_SG_co2gas_mod.xml" format="ascii">
106.138 106.138 106.136 106.139 193.863 193.712 106.136 106.137 174.597 173.034 299.776 299.813 310.151 308.539 106.138 106.138 110.023 111.553 106.209 106.443 106.438 105.614 106.138 106.138 110.005 110.104 106.138 106.138 106.138 106.138 106.138 106.138 106.097 106.115 106.138 106.138 106.138 106.138 106.138 100.12 100.12 106.138 106.138 106.138 106.137 106.034 106.028 106.137 106.138 106.138 106.138 106.138 94.4296 106.138 106.138 106.138 106.138 106.138 106.138 106.138 106.138 106.108 106.136 102.989 105.849 
        </DataArray>
        <DataArray type="Float32" Name="F1_Temperature_SG_co2gas_mod.xml" format="ascii">
466.385 466.385 466.385 466.386 447.531 447.495 466.385 466.385 451.764 452.358 385.234 385.238 392.043 392.141 466.385 466.385 467.995 468.418 466.406 466.47 466.469 466.25 466.385 466.385 468.582 468.629 466.385 466.385 466.385 466.385 466.385 466.385 466.375 466.379 466.385 466.385 466.385 466.385 466.385 464.811 464.811 466.385 466.385 466.385 466.385 466.358 466.356 466.385 466.385 466.385 466.385 466.385 468.32 466.385 466.385 466.385 466.385 466.385 466.385 466.385 466.385 466.377 466.385 465.553 466.31 
        </DataArray>
        <DataArray type="Float32" Name="F1_Mass fraction_SG_co2gas_mod.xml" format="ascii">
1 1 1 1 1 1 1 1 1 1 1 1 1 1 1 1 1 1 1 1 1 1 1 1 1 1 1 1 1 1 1 1 1 1 1 1 1 1 1 1 1 1 1 1 1 1 1 1 1 1 1 1 1 1 1 1 1 1 1 1 1 1 1 1 1 
        </DataArray>
        <DataArray type="Float32" Name="Density_Mixture" format="ascii">
106.138 106.138 106.136 106.139 193.863 193.712 106.136 106.137 174.597 173.034 299.776 299.813 310.151 308.539 106.138 106.138 110.023 111.553 106.209 106.443 106.438 105.614 106.138 106.138 110.005 110.104 106.138 106.138 106.138 106.138 106.138 106.138 106.097 106.115 106.138 106.138 106.138 106.138 106.138 100.12 100.12 106.138 106.138 106.138 106.137 106.034 106.028 106.137 106.138 106.138 106.138 106.138 94.4296 106.138 106.138 106.138 106.138 106.138 106.138 106.138 106.138 106.108 106.136 102.989 105.849 
        </DataArray>
        <DataArray type="Float32" Name="Pressure_Mixture" format="ascii">
6.27186e+06 6.27186e+06 6.27171e+06 6.27192e+06 1.16595e+07 1.16487e+07 6.27174e+06 6.27178e+06 1.05196e+07 1.04323e+07 1.5813e+07 1.58152e+07 1.66962e+07 1.66093e+07 6.27186e+06 6.27186e+06 6.55948e+06 6.66986e+06 6.27697e+06 6.29375e+06 6.29341e+06 6.23447e+06 6.27186e+06 6.27186e+06 6.5676e+06 6.57508e+06 6.27186e+06 6.27186e+06 6.27186e+06 6.27186e+06 6.27186e+06 6.27186e+06 6.26892e+06 6.27025e+06 6.27186e+06 6.27186e+06 6.27186e+06 6.27186e+06 6.27186e+06 5.84322e+06 5.84322e+06 6.27186e+06 6.27186e+06 6.27186e+06 6.27183e+06 6.26446e+06 6.26399e+06 6.27183e+06 6.27186e+06 6.27186e+06 6.27186e+06 6.27186e+06 5.50869e+06 6.27186e+06 6.27186e+06 6.27186e+06 6.27186e+06 6.27186e+06 6.27186e+06 6.27186e+06 6.27185e+06 6.2697e+06 6.27174e+06 6.0471e+06 6.25122e+06 
        </DataArray>
        <DataArray type="Float32" Name="Velocity_Mixture" NumberOfComponents="3" format="ascii">
-1.18267e-05 0 0 8.53459e-05 0 0 -0.0035261 0.00392466 0 0.00121117 0.00215542 0 170.004 -19.2973 0 170.274 20.0968 0 -0.00332947 0.00188667 0 -0.0024945 -0.00123542 0 144.831 39.0322 0 143.502 -33.1622 0 303.958 1.16599 0 303.931 -1.18509 0 284.841 -25.9122 0 278.381 45.6011 0 0 0 0 0 0 0 10.0895 0.346014 0 9.79584 2.65503 0 0.153558 -0.067072 0 0.730913 -0.365034 0 0.705227 0.374275 0 -1.01293 -1.00789 0 0 0 0 0 0 0 11.341 -3.15585 0 11.6024 3.40513 0 0 0 0 0 0 0 0 0 0 0 0 0 0 0 0 0 0 0 -0.0718159 0.00408555 0 -0.0583874 -0.0107194 0 0 0 0 0 0 0 0 0 0 0 0 0 0 0 0 3.31852 -1.48191 0 3.31852 1.48191 0 0 0 0 0 0 0 0 0 0 0.000131083 -0.000376584 0 0.0405398 -0.0683484 0 0.047646 0.0683184 0 0.000166681 0.000415211 0 0 0 0 0 0 0 0 0 0 0 0 0 26.2958 0 0 0 0 0 0 0 0 0 0 0 0 0 0 0 0 0 0 0 0 0 0 0 3.25692e-05 1.50191e-06 0 0.0185485 0.0040879 0 0.00586425 -0.000234587 0 2.30285 -3.43335e-05 0 1.16294 -0.0467322 0 
        </DataArray>
        <DataArray type="Float32" Name="gradRho" format="ascii">
0.000595973 0.000236216 0.00656591 0.0123723 57.8539 58.0036 0.116503 0.117796 51.2815 51.8618 73.5612 73.6847 32.3718 31.6223 1.0991e-05 2.28019e-06 21.5476 21.9582 1.16884 1.4566 1.32815 1.50186 5.05327e-08 1.85293e-07 29.8266 29.8888 0 0 0 3.46286e-09 2.09326e-10 0 0.173904 0.0307316 0 0 0 0 0 0.953007 0.953009 0 5.12168e-10 5.25893e-07 0.000271044 0.0344109 0.0315739 0.000244161 4.66093e-07 5.12168e-10 0 0 0.820371 0 0 0 0 7.93261e-08 2.24324e-08 2.2433e-05 6.29069e-05 0.0176783 0.0100927 1.27674 1.0185 
        </DataArray>
      </CellData>
    </Piece>
  </UnstructuredGrid>
</VTKFile>
