<?xml version="1.0"?>
<VTKFile type="UnstructuredGrid" version="0.1" byte_order="LittleEndian">
  <UnstructuredGrid>
    <Piece NumberOfPoints="50" NumberOfCells="65">
      <Points>
        <DataArray type="Float32" NumberOfComponents="3" format="ascii">
          0 5 0 0 -5 0 15 0.2 0 15 -0.2 0 35 0.2 0 35 -0.2 0 2.14286 4.31429 0 4.28571 3.62857 0 6.42857 2.94286 0 8.57143 2.25714 0 10.7143 1.57143 0 12.8571 0.885714 0 17.8571 0.2 0 20.7143 0.2 0 23.5714 0.2 0 26.4286 0.2 0 29.2857 0.2 0 32.1429 0.2 0 32.1429 -0.2 0 29.2857 -0.2 0 26.4286 -0.2 0 23.5714 -0.2 0 20.7143 -0.2 0 17.8571 -0.2 0 12.8571 -0.885714 0 10.7143 -1.57143 0 8.57143 -2.25714 0 6.42857 -2.94286 0 4.28571 -3.62857 0 2.14286 -4.31429 0 0 -2.5 0 0 -6.16307e-12 0 0 2.5 0 3.95974 -5.7158e-13 0 13.9286 -3.66374e-15 0 6.61813 2.81487e-12 0 2.86365 2.0434 0 2.86365 -2.0434 0 9.43036 1.987e-12 0 11.3926 2.79508e-14 0 4.83116 1.72297 0 4.83116 -1.72297 0 1.90629 -3.21031e-12 0 33.5714 0 0 16.4286 -1.80625e-18 0 25 6.93889e-18 0 19.2857 -6.93889e-18 0 30.7143 0 0 22.1429 0 0 27.8571 0 0 
        </DataArray>
      </Points>
      <Cells>
        <DataArray type="Int32" Name="connectivity" format="ascii">
          8 9 35 26 27 35 8 35 40 27 41 35 30 42 37 32 36 42 33 40 35 33 35 41 29 30 37 6 36 32 30 31 42 31 32 42 0 6 32 30 29 1 26 35 38 9 38 35 6 7 36 28 29 37 7 40 36 33 41 37 33 36 40 28 37 41 9 10 38 25 26 38 33 42 36 33 37 42 11 34 24 24 25 39 10 11 39 25 38 39 10 39 38 11 24 39 27 28 41 7 8 40 2 34 11 3 24 34 2 3 34 2 44 12 3 23 44 4 17 43 5 43 18 12 46 13 13 48 14 14 45 15 15 49 16 16 47 17 18 47 19 19 49 20 20 45 21 21 48 22 22 46 23 2 3 44 4 43 5 12 44 23 12 23 46 13 46 22 13 22 48 14 21 45 14 48 21 15 45 20 15 20 49 16 19 47 16 49 19 17 18 43 17 47 18 
        </DataArray>
        <DataArray type="Int32" Name="offsets" format="ascii">
          3 6 9 12 15 18 21 24 27 30 33 36 39 42 45 48 51 54 57 60 63 66 69 72 75 78 81 84 87 90 93 96 99 102 105 108 111 114 117 120 123 126 129 132 135 138 141 144 147 150 153 156 159 162 165 168 171 174 177 180 183 186 189 192 195 
        </DataArray>
        <DataArray type="UInt8" Name="types" format="ascii">
          5 5 5 5 5 5 5 5 5 5 5 5 5 5 5 5 5 5 5 5 5 5 5 5 5 5 5 5 5 5 5 5 5 5 5 5 5 5 5 5 5 5 5 5 5 5 5 5 5 5 5 5 5 5 5 5 5 5 5 5 5 5 5 5 5 
        </DataArray>
      </Cells>
      <CellData>
        <DataArray type="Float32" Name="F0_Alpha_SG_co2liq_mod.xml" format="ascii">
1.69168e-10 1.68706e-10 1.65318e-10 1.65728e-10 1.64969e-10 1.64886e-10 1.64281e-10 1.63898e-10 1.63331e-10 1.63287e-10 1.67781e-10 1.67781e-10 1.60781e-10 1.61081e-10 1.72235e-10 1.71826e-10 1.62309e-10 1.62538e-10 1.61869e-10 1.62622e-10 1.63226e-10 1.61363e-10 1.72628e-10 1.72698e-10 1.63992e-10 1.64031e-10 1.72682e-10 1.72682e-10 1.72688e-10 1.72686e-10 1.72696e-10 1.72683e-10 1.62087e-10 1.62191e-10 1.72682e-10 1.72682e-10 1.72682e-10 1.72682e-10 1.72682e-10 1.73376e-10 1.73376e-10 1.72682e-10 1.72683e-10 1.72691e-10 1.72753e-10 1.72993e-10 1.72993e-10 1.72753e-10 1.72691e-10 1.72683e-10 1.72682e-10 1.72682e-10 1.73404e-10 1.72682e-10 1.72682e-10 1.72682e-10 1.72682e-10 1.72688e-10 1.72683e-10 1.72695e-10 1.72733e-10 1.72932e-10 1.72774e-10 1.73309e-10 1.73049e-10 
        </DataArray>
        <DataArray type="Float32" Name="F0_Density_SG_co2liq_mod.xml" format="ascii">
6096.97 6121.94 6310.5 6288.53 6520.77 6525.85 6428.55 6451.93 6634.81 6637.4 6347.73 6347.71 6817.27 6796.69 5924.56 5948.69 6655.52 6643.46 6629.52 6598 6563.91 6658.52 5900.58 5896.09 6547.2 6544.98 5897.13 5897.12 5896.77 5896.84 5896.25 5897.08 6533.59 6525.11 5897.13 5897.13 5897.13 5897.13 5897.13 5849.1 5849.1 5897.13 5897.09 5896.57 5892.59 5876.78 5876.77 5892.6 5896.57 5897.09 5897.13 5897.13 5843.1 5897.13 5897.13 5897.13 5897.11 5896.77 5897.06 5896.32 5893.87 5880.89 5891.21 5854.31 5872.87 
        </DataArray>
        <DataArray type="Float32" Name="F0_Temperature_SG_co2liq_mod.xml" format="ascii">
42.1516 42.1792 42.3304 42.3167 42.4285 42.4303 42.3918 42.4019 42.4637 42.4643 42.3519 42.3518 42.5026 42.4991 41.8586 41.9163 42.469 42.4659 42.4622 42.4534 42.443 42.4698 41.7914 41.7774 42.4375 42.4368 41.7807 41.7807 41.7795 41.7798 41.7779 41.7805 42.433 42.43 41.7807 41.7807 41.7807 41.7807 41.7807 41.5885 41.5885 41.7807 41.7805 41.7789 41.7661 41.7107 41.7107 41.7662 41.7789 41.7805 41.7807 41.7807 41.5557 41.7807 41.7807 41.7807 41.7806 41.7795 41.7805 41.7781 41.7703 41.7259 41.7616 41.6148 41.6957 
        </DataArray>
        <DataArray type="Float32" Name="F0_Mass fraction_SG_co2liq_mod.xml" format="ascii">
5.55498e-09 5.31047e-09 3.98872e-09 4.09453e-09 2.34342e-09 2.33385e-09 3.09329e-09 3.01645e-09 2.11548e-09 2.11181e-09 2.74793e-09 2.748e-09 1.83402e-09 1.85991e-09 8.60883e-09 7.93227e-09 2.18486e-09 2.19896e-09 2.37581e-09 2.39095e-09 2.44933e-09 2.32902e-09 9.45202e-09 9.63859e-09 2.38945e-09 2.39334e-09 9.59427e-09 9.59464e-09 9.60969e-09 9.60651e-09 9.6317e-09 9.59635e-09 2.90892e-09 2.94342e-09 9.59437e-09 9.59439e-09 9.5944e-09 9.5944e-09 9.5944e-09 1.24777e-08 1.24776e-08 9.59448e-09 9.59614e-09 9.61806e-09 9.79047e-09 1.0569e-08 1.05691e-08 9.79002e-09 9.61811e-09 9.59616e-09 9.59448e-09 9.5944e-09 1.32905e-08 9.59441e-09 9.59444e-09 9.59455e-09 9.59541e-09 9.6097e-09 9.59722e-09 9.62851e-09 9.73412e-09 1.03505e-08 9.85268e-09 1.20394e-08 1.0794e-08 
        </DataArray>
        <DataArray type="Float32" Name="F1_Alpha_SG_co2gas_mod.xml" format="ascii">
1 1 1 1 1 1 1 1 1 1 1 1 1 1 1 1 1 1 1 1 1 1 1 1 1 1 1 1 1 1 1 1 1 1 1 1 1 1 1 1 1 1 1 1 1 1 1 1 1 1 1 1 1 1 1 1 1 1 1 1 1 1 1 1 1 
        </DataArray>
        <DataArray type="Float32" Name="F1_Density_SG_co2gas_mod.xml" format="ascii">
185.673 194.486 261.547 254.53 459.042 461.049 341.413 350.563 512.257 513.208 387.574 387.564 597.643 588.64 118.531 128.859 494.425 491.057 451.683 448.766 437.425 461.329 107.766 105.642 449.346 448.57 106.139 106.135 105.966 106.002 105.719 106.116 364.055 359.553 106.138 106.138 106.138 106.138 106.138 81.2725 81.2729 106.137 106.118 105.872 103.975 96.1903 96.1898 103.98 105.871 106.118 106.137 106.138 76.2366 106.138 106.137 106.136 106.126 105.966 106.106 105.755 104.587 98.2556 103.307 84.2737 94.1539 
        </DataArray>
        <DataArray type="Float32" Name="F1_Temperature_SG_co2gas_mod.xml" format="ascii">
488.404 490.648 497.019 495.23 363.848 364.175 442.044 442.201 364.475 364.667 352.55 352.55 364.441 364.09 470.268 473.326 384.807 383.232 411.343 401.937 398.912 413.526 466.805 466.256 381.895 381.7 466.386 466.385 466.34 466.349 466.276 466.38 464.887 466.616 466.385 466.385 466.385 466.385 466.385 459.574 459.574 466.385 466.38 466.315 465.813 463.719 463.713 465.814 466.315 466.38 466.385 466.385 467.472 466.385 466.385 466.385 466.382 466.34 466.377 466.285 465.975 464.265 465.654 460.281 463.384 
        </DataArray>
        <DataArray type="Float32" Name="F1_Mass fraction_SG_co2gas_mod.xml" format="ascii">
1 1 1 1 1 1 1 1 1 1 1 1 1 1 1 1 1 1 1 1 1 1 1 1 1 1 1 1 1 1 1 1 1 1 1 1 1 1 1 1 1 1 1 1 1 1 1 1 1 1 1 1 1 1 1 1 1 1 1 1 1 1 1 1 1 
        </DataArray>
        <DataArray type="Float32" Name="Density_Mixture" format="ascii">
185.673 194.486 261.547 254.53 459.042 461.049 341.413 350.563 512.257 513.208 387.574 387.564 597.643 588.64 118.531 128.859 494.425 491.057 451.683 448.766 437.425 461.329 107.766 105.642 449.346 448.57 106.139 106.135 105.966 106.002 105.719 106.116 364.055 359.553 106.138 106.138 106.138 106.138 106.138 81.2725 81.2729 106.137 106.118 105.872 103.975 96.1903 96.1898 103.98 105.871 106.118 106.137 106.138 76.2366 106.138 106.137 106.136 106.126 105.966 106.106 105.755 104.587 98.2556 103.307 84.2737 94.1539 
        </DataArray>
        <DataArray type="Float32" Name="Pressure_Mixture" format="ascii">
1.22268e+07 1.29123e+07 1.79111e+07 1.7341e+07 2.32653e+07 2.33927e+07 2.0937e+07 2.15298e+07 2.61115e+07 2.61759e+07 1.88721e+07 1.88715e+07 3.06087e+07 3.01044e+07 7.17421e+06 7.93347e+06 2.66253e+07 2.63261e+07 2.59802e+07 2.51964e+07 2.43459e+07 2.66995e+07 6.38817e+06 6.23648e+06 2.39278e+07 2.38723e+07 6.27196e+06 6.27166e+06 6.25957e+06 6.26212e+06 6.24197e+06 6.27029e+06 2.35868e+07 2.3374e+07 6.27189e+06 6.27186e+06 6.27186e+06 6.27186e+06 6.27186e+06 4.51491e+06 4.51494e+06 6.27179e+06 6.27045e+06 6.25286e+06 6.11739e+06 5.56392e+06 5.56381e+06 6.11773e+06 6.25282e+06 6.27044e+06 6.27179e+06 6.27186e+06 4.26732e+06 6.27185e+06 6.27182e+06 6.27174e+06 6.27104e+06 6.25956e+06 6.26959e+06 6.24451e+06 6.16109e+06 5.71016e+06 6.07002e+06 4.72296e+06 5.42281e+06 
        </DataArray>
        <DataArray type="Float32" Name="Velocity_Mixture" NumberOfComponents="3" format="ascii">
167.885 -21.555 0 150.713 43.9575 0 233.706 -35.854 0 235.911 38.4706 0 321.802 28.7271 0 321.523 -30.5271 0 287.088 -15.5814 0 289.399 25.9811 0 304.118 50.269 0 304.274 -50.9819 0 343.786 0.0602039 0 343.79 -0.0572935 0 273.245 -42.7325 0 274.677 45.9098 0 23.8633 4.04459 0 55.3801 -16.9781 0 293.254 -70.8958 0 297.432 76.6393 0 294.932 -71.0973 0 290.204 44.6337 0 298.176 -38.0367 0 289.195 85.8281 0 1.58516 -1.59127 0 -1.01524 0.385194 0 305.412 -16.9202 0 304.708 16.3829 0 0.00359455 -0.000498991 0 0.00082898 0.00336879 0 -0.397505 -0.0540723 0 -0.222127 0.196304 0 -0.853946 0.89933 0 -0.0411215 0.0518725 0 280.295 86.0457 0 282.988 -69.9421 0 0.000611284 0.000221438 0 0.000139874 -4.33004e-05 0 0 -6.45668e-05 0 0 -1.02305e-05 0 0 1.15493e-05 0 34.9515 -0.597828 0 34.9558 0.599719 0 0.000422797 -0.000306571 0 0.0102498 -0.00516183 0 0.15148 -0.0513307 0 1.41899 -0.273616 0 8.5099 -0.679074 0 8.50319 0.666543 0 1.4406 0.263551 0 0.157931 0.0492911 0 0.0108679 0.0049881 0 0.000463512 0.000301543 0 0 0 0 72.1359 0.00243773 0 0.000219362 0 0 0.000374162 3.55443e-05 0 0.00738228 -0.000192178 0 0.0108188 0.00095963 0 0.189465 0.0120274 0 0.142136 -0.00341191 0 1.69977 -0.0342914 0 2.09285 0.0647475 0 14.1671 0.0479844 0 11.8601 -0.102127 0 56.3317 -0.00204145 0 44.0062 -0.0530542 0 
        </DataArray>
        <DataArray type="Float32" Name="gradRho" format="ascii">
31.341 30.2302 50.8991 49.2142 31.6996 31.763 54.6868 58.3143 39.5895 40.9653 49.6364 51.0353 19.934 18.0332 23.3539 23.5696 15.1888 13.0978 50.8616 35.5366 38.2659 49.2253 7.60273 4.28545 7.85154 3.48014 0.00967296 0.0480015 0.116448 0.177067 0.555168 0.0729484 50.9728 47.2389 0.000473813 0.000615476 0.000188945 6.22609e-06 5.0731e-06 0.781075 0.781227 0.000117038 0.00177685 0.0163129 0.0934084 0.295772 0.295779 0.093827 0.0162107 0.00174046 0.000113424 4.0604e-06 0.726077 0.000149597 0.000190346 0.00346519 0.00419448 0.0581237 0.0502435 0.419924 0.467358 1.96644 1.83236 3.74653 3.65379 
        </DataArray>
      </CellData>
    </Piece>
  </UnstructuredGrid>
</VTKFile>
