<?xml version="1.0"?>
<VTKFile type="UnstructuredGrid" version="0.1" byte_order="LittleEndian">
  <UnstructuredGrid>
    <Piece NumberOfPoints="50" NumberOfCells="65">
      <Points>
        <DataArray type="Float32" NumberOfComponents="3" format="ascii">
          0 5 0 0 -5 0 15 0.2 0 15 -0.2 0 35 0.2 0 35 -0.2 0 2.14286 4.31429 0 4.28571 3.62857 0 6.42857 2.94286 0 8.57143 2.25714 0 10.7143 1.57143 0 12.8571 0.885714 0 17.8571 0.2 0 20.7143 0.2 0 23.5714 0.2 0 26.4286 0.2 0 29.2857 0.2 0 32.1429 0.2 0 32.1429 -0.2 0 29.2857 -0.2 0 26.4286 -0.2 0 23.5714 -0.2 0 20.7143 -0.2 0 17.8571 -0.2 0 12.8571 -0.885714 0 10.7143 -1.57143 0 8.57143 -2.25714 0 6.42857 -2.94286 0 4.28571 -3.62857 0 2.14286 -4.31429 0 0 -2.5 0 0 -6.16307e-12 0 0 2.5 0 3.95974 -5.7158e-13 0 13.9286 -3.66374e-15 0 6.61813 2.81487e-12 0 2.86365 2.0434 0 2.86365 -2.0434 0 9.43036 1.987e-12 0 11.3926 2.79508e-14 0 4.83116 1.72297 0 4.83116 -1.72297 0 1.90629 -3.21031e-12 0 33.5714 0 0 16.4286 -1.80625e-18 0 25 6.93889e-18 0 19.2857 -6.93889e-18 0 30.7143 0 0 22.1429 0 0 27.8571 0 0 
        </DataArray>
      </Points>
      <Cells>
        <DataArray type="Int32" Name="connectivity" format="ascii">
          8 9 35 26 27 35 8 35 40 27 41 35 30 42 37 32 36 42 33 40 35 33 35 41 29 30 37 6 36 32 30 31 42 31 32 42 0 6 32 30 29 1 26 35 38 9 38 35 6 7 36 28 29 37 7 40 36 33 41 37 33 36 40 28 37 41 9 10 38 25 26 38 33 42 36 33 37 42 11 34 24 24 25 39 10 11 39 25 38 39 10 39 38 11 24 39 27 28 41 7 8 40 2 34 11 3 24 34 2 3 34 2 44 12 3 23 44 4 17 43 5 43 18 12 46 13 13 48 14 14 45 15 15 49 16 16 47 17 18 47 19 19 49 20 20 45 21 21 48 22 22 46 23 2 3 44 4 43 5 12 44 23 12 23 46 13 46 22 13 22 48 14 21 45 14 48 21 15 45 20 15 20 49 16 19 47 16 49 19 17 18 43 17 47 18 
        </DataArray>
        <DataArray type="Int32" Name="offsets" format="ascii">
          3 6 9 12 15 18 21 24 27 30 33 36 39 42 45 48 51 54 57 60 63 66 69 72 75 78 81 84 87 90 93 96 99 102 105 108 111 114 117 120 123 126 129 132 135 138 141 144 147 150 153 156 159 162 165 168 171 174 177 180 183 186 189 192 195 
        </DataArray>
        <DataArray type="UInt8" Name="types" format="ascii">
          5 5 5 5 5 5 5 5 5 5 5 5 5 5 5 5 5 5 5 5 5 5 5 5 5 5 5 5 5 5 5 5 5 5 5 5 5 5 5 5 5 5 5 5 5 5 5 5 5 5 5 5 5 5 5 5 5 5 5 5 5 5 5 5 5 
        </DataArray>
      </Cells>
      <CellData>
        <DataArray type="Float32" Name="F0_Alpha_SG_co2liq_mod.xml" format="ascii">
1.72682e-10 1.72682e-10 1.72682e-10 1.72682e-10 1.7264e-10 1.7264e-10 1.72682e-10 1.72682e-10 1.72652e-10 1.72652e-10 1.71916e-10 1.71916e-10 1.71986e-10 1.71986e-10 1.72682e-10 1.72682e-10 1.72682e-10 1.72682e-10 1.72682e-10 1.72682e-10 1.72682e-10 1.72682e-10 1.72682e-10 1.72682e-10 1.72682e-10 1.72682e-10 1.72682e-10 1.72682e-10 1.72682e-10 1.72682e-10 1.72682e-10 1.72682e-10 1.72682e-10 1.72682e-10 1.72682e-10 1.72682e-10 1.72682e-10 1.72682e-10 1.72682e-10 1.7269e-10 1.7269e-10 1.72682e-10 1.72682e-10 1.72682e-10 1.72682e-10 1.72682e-10 1.72682e-10 1.72682e-10 1.72682e-10 1.72682e-10 1.72682e-10 1.72682e-10 1.72761e-10 1.72682e-10 1.72682e-10 1.72682e-10 1.72682e-10 1.72682e-10 1.72682e-10 1.72682e-10 1.72682e-10 1.72682e-10 1.72682e-10 1.72682e-10 1.72682e-10 
        </DataArray>
        <DataArray type="Float32" Name="F0_Density_SG_co2liq_mod.xml" format="ascii">
5897.13 5897.13 5897.13 5897.13 5899.88 5899.88 5897.13 5897.13 5899.09 5899.08 5958.16 5958.16 5952.44 5952.45 5897.13 5897.13 5897.12 5897.12 5897.13 5897.13 5897.13 5897.13 5897.13 5897.13 5897.11 5897.11 5897.13 5897.13 5897.13 5897.13 5897.13 5897.13 5897.13 5897.13 5897.13 5897.13 5897.13 5897.13 5897.13 5896.63 5896.63 5897.13 5897.13 5897.13 5897.13 5897.13 5897.13 5897.13 5897.13 5897.13 5897.13 5897.13 5891.8 5897.13 5897.13 5897.13 5897.13 5897.13 5897.13 5897.13 5897.13 5897.13 5897.13 5897.12 5897.13 
        </DataArray>
        <DataArray type="Float32" Name="F0_Temperature_SG_co2liq_mod.xml" format="ascii">
41.7807 41.7807 41.7807 41.7807 41.7892 41.7892 41.7807 41.7807 41.7868 41.7868 41.9367 41.9367 41.9245 41.9245 41.7807 41.7807 41.7806 41.7806 41.7807 41.7807 41.7807 41.7807 41.7807 41.7807 41.7806 41.7806 41.7807 41.7807 41.7807 41.7807 41.7807 41.7807 41.7807 41.7807 41.7807 41.7807 41.7807 41.7807 41.7807 41.7791 41.7791 41.7807 41.7807 41.7807 41.7807 41.7807 41.7807 41.7807 41.7807 41.7807 41.7807 41.7807 41.7636 41.7807 41.7807 41.7807 41.7807 41.7807 41.7807 41.7807 41.7807 41.7807 41.7807 41.7806 41.7807 
        </DataArray>
        <DataArray type="Float32" Name="F0_Mass fraction_SG_co2liq_mod.xml" format="ascii">
9.5944e-09 9.5944e-09 9.5944e-09 9.5944e-09 9.47735e-09 9.47735e-09 9.5944e-09 9.5944e-09 9.51083e-09 9.51123e-09 7.24514e-09 7.24514e-09 7.41688e-09 7.41688e-09 9.5944e-09 9.5944e-09 9.59488e-09 9.59492e-09 9.59443e-09 9.5944e-09 9.5944e-09 9.59441e-09 9.5944e-09 9.5944e-09 9.59526e-09 9.59526e-09 9.5944e-09 9.5944e-09 9.5944e-09 9.5944e-09 9.5944e-09 9.5944e-09 9.5944e-09 9.5944e-09 9.5944e-09 9.5944e-09 9.5944e-09 9.5944e-09 9.5944e-09 9.6157e-09 9.6157e-09 9.5944e-09 9.5944e-09 9.5944e-09 9.5944e-09 9.5944e-09 9.5944e-09 9.5944e-09 9.5944e-09 9.5944e-09 9.5944e-09 9.5944e-09 9.83977e-09 9.5944e-09 9.5944e-09 9.5944e-09 9.5944e-09 9.5944e-09 9.5944e-09 9.5944e-09 9.5944e-09 9.5944e-09 9.5944e-09 9.59472e-09 9.5944e-09 
        </DataArray>
        <DataArray type="Float32" Name="F1_Alpha_SG_co2gas_mod.xml" format="ascii">
1 1 1 1 1 1 1 1 1 1 1 1 1 1 1 1 1 1 1 1 1 1 1 1 1 1 1 1 1 1 1 1 1 1 1 1 1 1 1 1 1 1 1 1 1 1 1 1 1 1 1 1 1 1 1 1 1 1 1 1 1 1 1 1 1 
        </DataArray>
        <DataArray type="Float32" Name="F1_Density_SG_co2gas_mod.xml" format="ascii">
106.138 106.138 106.138 106.138 107.472 107.472 106.138 106.138 107.087 107.083 141.378 141.378 138.028 138.028 106.138 106.138 106.132 106.132 106.137 106.138 106.138 106.138 106.138 106.138 106.128 106.128 106.138 106.138 106.138 106.138 106.138 106.138 106.138 106.138 106.138 106.138 106.138 106.138 106.138 105.898 105.898 106.138 106.138 106.138 106.138 106.138 106.138 106.138 106.138 106.138 106.138 106.138 103.445 106.138 106.138 106.138 106.138 106.138 106.138 106.138 106.138 106.138 106.138 106.134 106.138 
        </DataArray>
        <DataArray type="Float32" Name="F1_Temperature_SG_co2gas_mod.xml" format="ascii">
466.385 466.385 466.385 466.385 466.573 466.573 466.385 466.385 466.526 466.525 445.653 445.653 447.682 447.696 466.385 466.385 466.384 466.384 466.385 466.385 466.385 466.385 466.385 466.385 466.383 466.383 466.385 466.385 466.385 466.385 466.385 466.385 466.385 466.385 466.385 466.385 466.385 466.385 466.385 466.323 466.323 466.385 466.385 466.385 466.385 466.385 466.385 466.385 466.385 466.385 466.385 466.385 466.386 466.385 466.385 466.385 466.385 466.385 466.385 466.385 466.385 466.385 466.385 466.384 466.385 
        </DataArray>
        <DataArray type="Float32" Name="F1_Mass fraction_SG_co2gas_mod.xml" format="ascii">
1 1 1 1 1 1 1 1 1 1 1 1 1 1 1 1 1 1 1 1 1 1 1 1 1 1 1 1 1 1 1 1 1 1 1 1 1 1 1 1 1 1 1 1 1 1 1 1 1 1 1 1 1 1 1 1 1 1 1 1 1 1 1 1 1 
        </DataArray>
        <DataArray type="Float32" Name="Density_Mixture" format="ascii">
106.138 106.138 106.138 106.138 107.472 107.472 106.138 106.138 107.087 107.083 141.378 141.378 138.028 138.028 106.138 106.138 106.132 106.132 106.137 106.138 106.138 106.138 106.138 106.138 106.128 106.128 106.138 106.138 106.138 106.138 106.138 106.138 106.138 106.138 106.138 106.138 106.138 106.138 106.138 105.898 105.898 106.138 106.138 106.138 106.138 106.138 106.138 106.138 106.138 106.138 106.138 106.138 103.445 106.138 106.138 106.138 106.138 106.138 106.138 106.138 106.138 106.138 106.138 106.134 106.138 
        </DataArray>
        <DataArray type="Float32" Name="Pressure_Mixture" format="ascii">
6.27186e+06 6.27186e+06 6.27186e+06 6.27186e+06 6.36478e+06 6.36478e+06 6.27186e+06 6.27186e+06 6.33807e+06 6.33775e+06 8.22461e+06 8.22461e+06 8.04923e+06 8.04951e+06 6.27186e+06 6.27186e+06 6.27147e+06 6.27144e+06 6.27184e+06 6.27186e+06 6.27186e+06 6.27185e+06 6.27186e+06 6.27186e+06 6.27117e+06 6.27117e+06 6.27186e+06 6.27186e+06 6.27186e+06 6.27186e+06 6.27186e+06 6.27186e+06 6.27186e+06 6.27186e+06 6.27186e+06 6.27186e+06 6.27186e+06 6.27186e+06 6.27186e+06 6.25476e+06 6.25476e+06 6.27186e+06 6.27186e+06 6.27186e+06 6.27186e+06 6.27186e+06 6.27186e+06 6.27186e+06 6.27186e+06 6.27186e+06 6.27186e+06 6.27186e+06 6.09025e+06 6.27186e+06 6.27186e+06 6.27186e+06 6.27186e+06 6.27186e+06 6.27186e+06 6.27186e+06 6.27186e+06 6.27186e+06 6.27186e+06 6.2716e+06 6.27185e+06 
        </DataArray>
        <DataArray type="Float32" Name="Velocity_Mixture" NumberOfComponents="3" format="ascii">
0 0 0 0 0 0 0 0 0 0 0 0 3.38665 -1.73937 0 3.38668 1.73955 0 0 0 0 0 0 0 2.08856 1.60503 0 2.08146 -1.59159 0 109.735 0.410276 0 109.735 -0.410275 0 100.677 -0.759044 0 100.244 2.11678 0 0 0 0 0 0 0 -0.0147858 -0.00560993 0 -0.0140614 0.0042879 0 -0.000534888 0.000470927 0 -6.50132e-05 3.24887e-05 0 -6.42591e-05 -2.77031e-05 0 -0.000165411 -0.000145729 0 0 0 0 0 0 0 -0.0219134 0.0100954 0 -0.0219129 -0.0100951 0 0 0 0 0 0 0 0 0 0 0 0 0 0 0 0 0 0 0 0 0 0 0 0 0 0 0 0 0 0 0 0 0 0 0 0 0 0 0 0 0.0843498 -0.396767 0 0.0843498 0.396767 0 0 0 0 0 0 0 0 0 0 0 0 0 0 -1.69627e-06 0 0 3.27395e-06 0 0 0 0 0 0 0 0 0 0 0 0 0 0 0 0 3.16318 0 0 0 0 0 0 0 0 0 0 0 0 0 0 0 0 0 0 0 0 0 0 0 0 0 0 0 0 0 0 0 0 0.00481457 0 0 0.00011766 -2.10135e-07 0 
        </DataArray>
        <DataArray type="Float32" Name="gradRho" format="ascii">
3.71131e-10 1.04074e-10 9.26233e-08 2.75813e-08 10.5791 10.5797 1.17285e-05 1.15116e-05 8.41864 8.41744 23.548 23.548 7.30592 7.30484 0 0 0.313347 0.314923 0.00174151 0.00325971 0.0032379 0.00185746 0 0 0.458938 0.458937 0 0 0 0 0 0 3.06704e-05 9.88414e-05 0 0 0 0 0 0.603091 0.603091 0 0 0 5.8472e-11 1.11776e-05 1.08536e-05 5.8472e-11 0 0 0 0 0.353786 0 0 0 0 0 0 0 0 3.74207e-07 1.3695e-08 0.0238887 0.00123698 
        </DataArray>
      </CellData>
    </Piece>
  </UnstructuredGrid>
</VTKFile>
