<?xml version="1.0"?>
<VTKFile type="UnstructuredGrid" version="0.1" byte_order="LittleEndian">
  <UnstructuredGrid>
    <Piece NumberOfPoints="50" NumberOfCells="65">
      <Points>
        <DataArray type="Float32" NumberOfComponents="3" format="ascii">
          0 5 0 0 -5 0 15 0.2 0 15 -0.2 0 35 0.2 0 35 -0.2 0 2.14286 4.31429 0 4.28571 3.62857 0 6.42857 2.94286 0 8.57143 2.25714 0 10.7143 1.57143 0 12.8571 0.885714 0 17.8571 0.2 0 20.7143 0.2 0 23.5714 0.2 0 26.4286 0.2 0 29.2857 0.2 0 32.1429 0.2 0 32.1429 -0.2 0 29.2857 -0.2 0 26.4286 -0.2 0 23.5714 -0.2 0 20.7143 -0.2 0 17.8571 -0.2 0 12.8571 -0.885714 0 10.7143 -1.57143 0 8.57143 -2.25714 0 6.42857 -2.94286 0 4.28571 -3.62857 0 2.14286 -4.31429 0 0 -2.5 0 0 -6.16307e-12 0 0 2.5 0 3.95974 -5.7158e-13 0 13.9286 -3.66374e-15 0 6.61813 2.81487e-12 0 2.86365 2.0434 0 2.86365 -2.0434 0 9.43036 1.987e-12 0 11.3926 2.79508e-14 0 4.83116 1.72297 0 4.83116 -1.72297 0 1.90629 -3.21031e-12 0 33.5714 0 0 16.4286 -1.80625e-18 0 25 6.93889e-18 0 19.2857 -6.93889e-18 0 30.7143 0 0 22.1429 0 0 27.8571 0 0 
        </DataArray>
      </Points>
      <Cells>
        <DataArray type="Int32" Name="connectivity" format="ascii">
          8 9 35 26 27 35 8 35 40 27 41 35 30 42 37 32 36 42 33 40 35 33 35 41 29 30 37 6 36 32 30 31 42 31 32 42 0 6 32 30 29 1 26 35 38 9 38 35 6 7 36 28 29 37 7 40 36 33 41 37 33 36 40 28 37 41 9 10 38 25 26 38 33 42 36 33 37 42 11 34 24 24 25 39 10 11 39 25 38 39 10 39 38 11 24 39 27 28 41 7 8 40 2 34 11 3 24 34 2 3 34 2 44 12 3 23 44 4 17 43 5 43 18 12 46 13 13 48 14 14 45 15 15 49 16 16 47 17 18 47 19 19 49 20 20 45 21 21 48 22 22 46 23 2 3 44 4 43 5 12 44 23 12 23 46 13 46 22 13 22 48 14 21 45 14 48 21 15 45 20 15 20 49 16 19 47 16 49 19 17 18 43 17 47 18 
        </DataArray>
        <DataArray type="Int32" Name="offsets" format="ascii">
          3 6 9 12 15 18 21 24 27 30 33 36 39 42 45 48 51 54 57 60 63 66 69 72 75 78 81 84 87 90 93 96 99 102 105 108 111 114 117 120 123 126 129 132 135 138 141 144 147 150 153 156 159 162 165 168 171 174 177 180 183 186 189 192 195 
        </DataArray>
        <DataArray type="UInt8" Name="types" format="ascii">
          5 5 5 5 5 5 5 5 5 5 5 5 5 5 5 5 5 5 5 5 5 5 5 5 5 5 5 5 5 5 5 5 5 5 5 5 5 5 5 5 5 5 5 5 5 5 5 5 5 5 5 5 5 5 5 5 5 5 5 5 5 5 5 5 5 
        </DataArray>
      </Cells>
      <CellData>
        <DataArray type="Float32" Name="F0_Alpha_SG_co2liq_mod.xml" format="ascii">
1.72682e-10 1.72682e-10 1.72682e-10 1.72682e-10 1.70785e-10 1.70788e-10 1.72682e-10 1.72682e-10 1.71243e-10 1.71288e-10 1.69002e-10 1.69e-10 1.68617e-10 1.68639e-10 1.72682e-10 1.72682e-10 1.72635e-10 1.7263e-10 1.72686e-10 1.72682e-10 1.72682e-10 1.72687e-10 1.72682e-10 1.72682e-10 1.72651e-10 1.72649e-10 1.72682e-10 1.72682e-10 1.72682e-10 1.72682e-10 1.72682e-10 1.72682e-10 1.72682e-10 1.72683e-10 1.72682e-10 1.72682e-10 1.72682e-10 1.72682e-10 1.72682e-10 1.72835e-10 1.72835e-10 1.72682e-10 1.72682e-10 1.72682e-10 1.72682e-10 1.72683e-10 1.72684e-10 1.72682e-10 1.72682e-10 1.72682e-10 1.72682e-10 1.72682e-10 1.72954e-10 1.72682e-10 1.72682e-10 1.72682e-10 1.72682e-10 1.72682e-10 1.72682e-10 1.72682e-10 1.72682e-10 1.72682e-10 1.72682e-10 1.72751e-10 1.72687e-10 
        </DataArray>
        <DataArray type="Float32" Name="F0_Density_SG_co2liq_mod.xml" format="ascii">
5897.13 5897.13 5897.13 5897.13 6023.13 6022.96 5897.13 5897.13 5993.02 5990.09 6195.48 6195.56 6212.51 6210.83 5897.13 5897.13 5900.04 5900.33 5896.87 5897.13 5897.13 5896.84 5897.13 5897.13 5898.93 5899.03 5897.13 5897.13 5897.13 5897.13 5897.13 5897.13 5897.11 5897.09 5897.13 5897.13 5897.13 5897.13 5897.13 5887.23 5887.23 5897.13 5897.13 5897.13 5897.13 5897.03 5897.02 5897.13 5897.13 5897.13 5897.13 5897.13 5877.67 5897.13 5897.13 5897.13 5897.13 5897.13 5897.13 5897.13 5897.13 5897.11 5897.13 5892.71 5896.8 
        </DataArray>
        <DataArray type="Float32" Name="F0_Temperature_SG_co2liq_mod.xml" format="ascii">
41.7807 41.7807 41.7807 41.7807 42.0533 42.0531 41.7807 41.7807 42.0038 41.9986 42.2485 42.2485 42.2624 42.261 41.7807 41.7807 41.7897 41.7906 41.7799 41.7807 41.7807 41.7798 41.7807 41.7807 41.7863 41.7866 41.7807 41.7807 41.7807 41.7807 41.7807 41.7807 41.7806 41.7805 41.7807 41.7807 41.7807 41.7807 41.7807 41.7482 41.7482 41.7807 41.7807 41.7807 41.7807 41.7804 41.7803 41.7807 41.7807 41.7807 41.7807 41.7807 41.7141 41.7807 41.7807 41.7807 41.7807 41.7807 41.7807 41.7807 41.7807 41.7806 41.7807 41.7665 41.7796 
        </DataArray>
        <DataArray type="Float32" Name="F0_Mass fraction_SG_co2liq_mod.xml" format="ascii">
9.5944e-09 9.5944e-09 9.59446e-09 9.59439e-09 6.13019e-09 6.13279e-09 9.59449e-09 9.59447e-09 6.69135e-09 6.75097e-09 3.76119e-09 3.76074e-09 3.71577e-09 3.72714e-09 9.5944e-09 9.5944e-09 9.47859e-09 9.46739e-09 9.60531e-09 9.59432e-09 9.59457e-09 9.60664e-09 9.5944e-09 9.5944e-09 9.52771e-09 9.52399e-09 9.5944e-09 9.5944e-09 9.5944e-09 9.5944e-09 9.5944e-09 9.5944e-09 9.59507e-09 9.59616e-09 9.5944e-09 9.5944e-09 9.5944e-09 9.5944e-09 9.5944e-09 1.0037e-08 1.0037e-08 9.5944e-09 9.5944e-09 9.5944e-09 9.59441e-09 9.59847e-09 9.59891e-09 9.59441e-09 9.5944e-09 9.5944e-09 9.5944e-09 9.5944e-09 1.06116e-08 9.5944e-09 9.5944e-09 9.5944e-09 9.5944e-09 9.5944e-09 9.5944e-09 9.5944e-09 9.5944e-09 9.59532e-09 9.59444e-09 9.78515e-09 9.60836e-09 
        </DataArray>
        <DataArray type="Float32" Name="F1_Alpha_SG_co2gas_mod.xml" format="ascii">
1 1 1 1 1 1 1 1 1 1 1 1 1 1 1 1 1 1 1 1 1 1 1 1 1 1 1 1 1 1 1 1 1 1 1 1 1 1 1 1 1 1 1 1 1 1 1 1 1 1 1 1 1 1 1 1 1 1 1 1 1 1 1 1 1 
        </DataArray>
        <DataArray type="Float32" Name="F1_Density_SG_co2gas_mod.xml" format="ascii">
106.138 106.138 106.137 106.138 167.802 167.729 106.137 106.137 153.372 151.983 278.381 278.417 281.917 281.017 106.138 106.138 107.458 107.588 106.015 106.139 106.136 106 106.138 106.138 106.894 106.937 106.138 106.138 106.138 106.138 106.138 106.138 106.13 106.118 106.138 106.138 106.138 106.138 106.138 101.377 101.377 106.138 106.138 106.138 106.138 106.092 106.087 106.138 106.138 106.138 106.138 106.138 95.7983 106.138 106.138 106.138 106.138 106.138 106.138 106.138 106.138 106.127 106.137 104.032 105.981 
        </DataArray>
        <DataArray type="Float32" Name="F1_Temperature_SG_co2gas_mod.xml" format="ascii">
466.385 466.385 466.385 466.385 454.74 454.729 466.385 466.385 457.964 458.212 392.01 392.013 398.185 398.368 466.385 466.385 466.975 467.03 466.353 466.386 466.385 466.349 466.385 466.385 467.027 467.05 466.385 466.385 466.385 466.385 466.385 466.385 466.383 466.38 466.385 466.385 466.385 466.385 466.385 465.142 465.142 466.385 466.385 466.385 466.385 466.373 466.372 466.385 466.385 466.385 466.385 466.385 467.928 466.385 466.385 466.385 466.385 466.385 466.385 466.385 466.385 466.383 466.385 465.831 466.344 
        </DataArray>
        <DataArray type="Float32" Name="F1_Mass fraction_SG_co2gas_mod.xml" format="ascii">
1 1 1 1 1 1 1 1 1 1 1 1 1 1 1 1 1 1 1 1 1 1 1 1 1 1 1 1 1 1 1 1 1 1 1 1 1 1 1 1 1 1 1 1 1 1 1 1 1 1 1 1 1 1 1 1 1 1 1 1 1 1 1 1 1 
        </DataArray>
        <DataArray type="Float32" Name="Density_Mixture" format="ascii">
106.138 106.138 106.137 106.138 167.802 167.729 106.137 106.137 153.372 151.983 278.381 278.417 281.917 281.017 106.138 106.138 107.458 107.588 106.015 106.139 106.136 106 106.138 106.138 106.894 106.937 106.138 106.138 106.138 106.138 106.138 106.138 106.13 106.118 106.138 106.138 106.138 106.138 106.138 101.377 101.377 106.138 106.138 106.138 106.138 106.092 106.087 106.138 106.138 106.138 106.138 106.138 95.7983 106.138 106.138 106.138 106.138 106.138 106.138 106.138 106.138 106.127 106.137 104.032 105.981 
        </DataArray>
        <DataArray type="Float32" Name="Pressure_Mixture" format="ascii">
6.27186e+06 6.27186e+06 6.27181e+06 6.27187e+06 1.01479e+07 1.01428e+07 6.27179e+06 6.2718e+06 9.27052e+06 9.18402e+06 1.48939e+07 1.48961e+07 1.53461e+07 1.53017e+07 6.27186e+06 6.27186e+06 6.37006e+06 6.37966e+06 6.26309e+06 6.27192e+06 6.27172e+06 6.26202e+06 6.27186e+06 6.27186e+06 6.33277e+06 6.33601e+06 6.27186e+06 6.27186e+06 6.27186e+06 6.27186e+06 6.27186e+06 6.27186e+06 6.27132e+06 6.27044e+06 6.27186e+06 6.27186e+06 6.27186e+06 6.27186e+06 6.27186e+06 5.93255e+06 5.93255e+06 6.27186e+06 6.27186e+06 6.27186e+06 6.27185e+06 6.26858e+06 6.26823e+06 6.27185e+06 6.27186e+06 6.27186e+06 6.27186e+06 6.27186e+06 5.59594e+06 6.27186e+06 6.27186e+06 6.27186e+06 6.27186e+06 6.27186e+06 6.27186e+06 6.27186e+06 6.27186e+06 6.27112e+06 6.27182e+06 6.12152e+06 6.26064e+06 
        </DataArray>
        <DataArray type="Float32" Name="Velocity_Mixture" NumberOfComponents="3" format="ascii">
0 0 0 6.73533e-06 0 0 -0.00103041 0.00122987 0 0.000209356 0.000341508 0 133.938 -19.5623 0 134.091 20.0672 0 -0.00220742 0.00113478 0 -0.00175495 -0.000846815 0 108.638 33.0692 0 108.002 -28.5912 0 289.184 1.4404 0 289.153 -1.46311 0 271.942 -20.652 0 265.625 39.7564 0 0 0 0 0 0 0 2.5804 -0.329927 0 2.97346 0.305702 0 -0.22541 0.206921 0 0.00924633 -0.0223261 0 0.00519459 0.0451595 0 -0.270186 -0.234453 0 0 0 0 0 0 0 2.47181 -0.786785 0 2.58417 0.866686 0 0 0 0 0 0 0 0 0 0 0 0 0 0 0 0 0 0 0 -0.0142886 0.0018433 0 -0.0483286 -0.0108578 0 0 0 0 0 0 0 0 0 0 0 0 0 0 0 0 2.44619 -1.50565 0 2.44619 1.50565 0 0 0 0 0 0 0 0 0 0 2.23791e-05 -9.78611e-05 0 0.0170726 -0.0376066 0 0.0208106 0.0391463 0 3.21064e-05 0.000115072 0 0 0 0 0 0 0 0 0 0 0 0 0 21.9522 0 0 0 0 0 0 0 0 0 0 0 0 0 0 0 0 0 0 0 0 0 0 0 0 0 0 0.00623243 0.00153704 0 0.00154352 -5.97644e-05 0 1.40196 -1.80386e-06 0 0.595617 -0.0251773 0 
        </DataArray>
        <DataArray type="Float32" Name="gradRho" format="ascii">
0.000180942 4.19092e-05 0.00586855 0.00219661 52.0125 52.1547 0.000418081 0.000575758 44.5877 44.5513 76.8021 76.8709 30.6759 30.1357 1.2977e-06 5.07682e-07 14.9925 15.4358 0.388542 0.292699 0.275476 0.420651 5.04657e-09 7.55501e-09 21.1235 21.1532 0 0 0 0 0 0 0.0464237 0.038376 0 0 0 0 0 0.958385 0.958385 0 0 6.39315e-08 8.44008e-05 0.0221508 0.0199678 7.53697e-05 5.72571e-08 0 0 0 0.804254 0 0 0 0 8.6324e-09 2.04027e-09 3.64027e-06 1.51742e-05 0.00754365 0.00349639 0.937223 0.692416 
        </DataArray>
      </CellData>
    </Piece>
  </UnstructuredGrid>
</VTKFile>
