<?xml version="1.0"?>
<VTKFile type="UnstructuredGrid" version="0.1" byte_order="LittleEndian">
  <UnstructuredGrid>
    <Piece NumberOfPoints="50" NumberOfCells="65">
      <Points>
        <DataArray type="Float32" NumberOfComponents="3" format="ascii">
          0 5 0 0 -5 0 15 0.2 0 15 -0.2 0 35 0.2 0 35 -0.2 0 2.14286 4.31429 0 4.28571 3.62857 0 6.42857 2.94286 0 8.57143 2.25714 0 10.7143 1.57143 0 12.8571 0.885714 0 17.8571 0.2 0 20.7143 0.2 0 23.5714 0.2 0 26.4286 0.2 0 29.2857 0.2 0 32.1429 0.2 0 32.1429 -0.2 0 29.2857 -0.2 0 26.4286 -0.2 0 23.5714 -0.2 0 20.7143 -0.2 0 17.8571 -0.2 0 12.8571 -0.885714 0 10.7143 -1.57143 0 8.57143 -2.25714 0 6.42857 -2.94286 0 4.28571 -3.62857 0 2.14286 -4.31429 0 0 -2.5 0 0 -6.16307e-12 0 0 2.5 0 3.95974 -5.7158e-13 0 13.9286 -3.66374e-15 0 6.61813 2.81487e-12 0 2.86365 2.0434 0 2.86365 -2.0434 0 9.43036 1.987e-12 0 11.3926 2.79508e-14 0 4.83116 1.72297 0 4.83116 -1.72297 0 1.90629 -3.21031e-12 0 33.5714 0 0 16.4286 -1.80625e-18 0 25 6.93889e-18 0 19.2857 -6.93889e-18 0 30.7143 0 0 22.1429 0 0 27.8571 0 0 
        </DataArray>
      </Points>
      <Cells>
        <DataArray type="Int32" Name="connectivity" format="ascii">
          8 9 35 26 27 35 8 35 40 27 41 35 30 42 37 32 36 42 33 40 35 33 35 41 29 30 37 6 36 32 30 31 42 31 32 42 0 6 32 30 29 1 26 35 38 9 38 35 6 7 36 28 29 37 7 40 36 33 41 37 33 36 40 28 37 41 9 10 38 25 26 38 33 42 36 33 37 42 11 34 24 24 25 39 10 11 39 25 38 39 10 39 38 11 24 39 27 28 41 7 8 40 2 34 11 3 24 34 2 3 34 2 44 12 3 23 44 4 17 43 5 43 18 12 46 13 13 48 14 14 45 15 15 49 16 16 47 17 18 47 19 19 49 20 20 45 21 21 48 22 22 46 23 2 3 44 4 43 5 12 44 23 12 23 46 13 46 22 13 22 48 14 21 45 14 48 21 15 45 20 15 20 49 16 19 47 16 49 19 17 18 43 17 47 18 
        </DataArray>
        <DataArray type="Int32" Name="offsets" format="ascii">
          3 6 9 12 15 18 21 24 27 30 33 36 39 42 45 48 51 54 57 60 63 66 69 72 75 78 81 84 87 90 93 96 99 102 105 108 111 114 117 120 123 126 129 132 135 138 141 144 147 150 153 156 159 162 165 168 171 174 177 180 183 186 189 192 195 
        </DataArray>
        <DataArray type="UInt8" Name="types" format="ascii">
          5 5 5 5 5 5 5 5 5 5 5 5 5 5 5 5 5 5 5 5 5 5 5 5 5 5 5 5 5 5 5 5 5 5 5 5 5 5 5 5 5 5 5 5 5 5 5 5 5 5 5 5 5 5 5 5 5 5 5 5 5 5 5 5 5 
        </DataArray>
      </Cells>
      <CellData>
        <DataArray type="Float32" Name="F0_Alpha_SG_co2liq_mod.xml" format="ascii">
1.72682e-10 1.72682e-10 1.72682e-10 1.72682e-10 1.68092e-10 1.68123e-10 1.72682e-10 1.72682e-10 1.68956e-10 1.68924e-10 1.68085e-10 1.68085e-10 1.66709e-10 1.66837e-10 1.72682e-10 1.72682e-10 1.72024e-10 1.71721e-10 1.7261e-10 1.72545e-10 1.72539e-10 1.72721e-10 1.72682e-10 1.72682e-10 1.71906e-10 1.71896e-10 1.72682e-10 1.72682e-10 1.72682e-10 1.72682e-10 1.72682e-10 1.72682e-10 1.72691e-10 1.72682e-10 1.72682e-10 1.72682e-10 1.72682e-10 1.72682e-10 1.72682e-10 1.72961e-10 1.72961e-10 1.72682e-10 1.72682e-10 1.72682e-10 1.72682e-10 1.72694e-10 1.72695e-10 1.72682e-10 1.72682e-10 1.72682e-10 1.72682e-10 1.72682e-10 1.73054e-10 1.72682e-10 1.72682e-10 1.72682e-10 1.72682e-10 1.72682e-10 1.72682e-10 1.72682e-10 1.72682e-10 1.72687e-10 1.72682e-10 1.72866e-10 1.72707e-10 
        </DataArray>
        <DataArray type="Float32" Name="F0_Density_SG_co2liq_mod.xml" format="ascii">
5897.13 5897.13 5897.11 5897.13 6208.72 6207.02 5897.13 5897.13 6150.14 6150.74 6284.52 6284.55 6363.66 6355.32 5897.13 5897.13 5937.33 5955.59 5901.65 5905.74 5906.09 5894.65 5897.13 5897.13 5943.98 5944.58 5897.13 5897.13 5897.13 5897.13 5897.13 5897.13 5896.56 5897.11 5897.13 5897.13 5897.13 5897.13 5897.13 5878.9 5878.9 5897.13 5897.13 5897.13 5897.12 5896.34 5896.33 5897.12 5897.13 5897.13 5897.13 5897.13 5870.03 5897.13 5897.13 5897.13 5897.13 5897.13 5897.13 5897.13 5897.13 5896.79 5897.1 5885.2 5895.52 
        </DataArray>
        <DataArray type="Float32" Name="F0_Temperature_SG_co2liq_mod.xml" format="ascii">
41.7807 41.7807 41.7806 41.7807 42.2594 42.258 41.7807 41.7807 42.2077 42.2083 42.3142 42.3142 42.3604 42.356 41.7807 41.7807 41.8902 41.9313 41.7946 41.8068 41.8079 41.7728 41.7807 41.7807 41.9057 41.907 41.7807 41.7807 41.7807 41.7807 41.7807 41.7807 41.7789 41.7806 41.7807 41.7807 41.7807 41.7807 41.7807 41.7186 41.7186 41.7807 41.7807 41.7807 41.7806 41.7782 41.7781 41.7806 41.7807 41.7807 41.7807 41.7807 41.6844 41.7807 41.7807 41.7807 41.7807 41.7807 41.7807 41.7807 41.7807 41.7796 41.7806 41.7412 41.7756 
        </DataArray>
        <DataArray type="Float32" Name="F0_Mass fraction_SG_co2liq_mod.xml" format="ascii">
9.59445e-09 9.59436e-09 9.59544e-09 9.59431e-09 4.01999e-09 4.02947e-09 9.59438e-09 9.59432e-09 4.48971e-09 4.49951e-09 3.1518e-09 3.15168e-09 2.90503e-09 2.93352e-09 9.5944e-09 9.5944e-09 8.22439e-09 7.73559e-09 9.40983e-09 9.25241e-09 9.23903e-09 9.70041e-09 9.5944e-09 9.5944e-09 8.05455e-09 8.03862e-09 9.5944e-09 9.5944e-09 9.5944e-09 9.5944e-09 9.5944e-09 9.5944e-09 9.61856e-09 9.59508e-09 9.5944e-09 9.5944e-09 9.5944e-09 9.5944e-09 9.5944e-09 1.04558e-08 1.04558e-08 9.5944e-09 9.5944e-09 9.5944e-09 9.59478e-09 9.6277e-09 9.62833e-09 9.59481e-09 9.5944e-09 9.5944e-09 9.5944e-09 9.5944e-09 1.11027e-08 9.5944e-09 9.5944e-09 9.5944e-09 9.5944e-09 9.5944e-09 9.5944e-09 9.59441e-09 9.59451e-09 9.60858e-09 9.59553e-09 1.01345e-08 9.66299e-09 
        </DataArray>
        <DataArray type="Float32" Name="F1_Alpha_SG_co2gas_mod.xml" format="ascii">
1 1 1 1 1 1 1 1 1 1 1 1 1 1 1 1 1 1 1 1 1 1 1 1 1 1 1 1 1 1 1 1 1 1 1 1 1 1 1 1 1 1 1 1 1 1 1 1 1 1 1 1 1 1 1 1 1 1 1 1 1 1 1 1 1 
        </DataArray>
        <DataArray type="Float32" Name="F1_Density_SG_co2gas_mod.xml" format="ascii">
106.137 106.138 106.126 106.139 259.612 258.977 106.138 106.139 231.441 230.916 335.153 335.166 365.187 361.444 106.138 106.138 124.187 132.207 108.258 110.134 110.296 104.957 106.138 106.138 126.861 127.118 106.138 106.138 106.138 106.138 106.138 106.138 105.866 106.13 106.138 106.138 106.138 106.138 106.138 97.2494 97.2495 106.138 106.138 106.138 106.133 105.764 105.757 106.133 106.138 106.138 106.138 106.138 91.4944 106.138 106.138 106.138 106.138 106.138 106.138 106.138 106.137 105.978 106.125 100.385 105.371 
        </DataArray>
        <DataArray type="Float32" Name="F1_Temperature_SG_co2gas_mod.xml" format="ascii">
466.385 466.385 466.382 466.386 429.724 429.57 466.385 466.386 435.19 436.665 373.946 373.948 381.91 381.768 466.385 466.385 471.401 472.453 466.98 467.582 467.618 466.082 466.385 466.385 472.809 472.867 466.385 466.385 466.385 466.385 466.385 466.385 466.314 466.383 466.385 466.385 466.385 466.385 466.385 464.046 464.046 466.385 466.385 466.385 466.384 466.287 466.285 466.384 466.385 466.385 466.385 466.385 469.026 466.385 466.385 466.385 466.385 466.385 466.385 466.385 466.385 466.343 466.382 464.854 466.189 
        </DataArray>
        <DataArray type="Float32" Name="F1_Mass fraction_SG_co2gas_mod.xml" format="ascii">
1 1 1 1 1 1 1 1 1 1 1 1 1 1 1 1 1 1 1 1 1 1 1 1 1 1 1 1 1 1 1 1 1 1 1 1 1 1 1 1 1 1 1 1 1 1 1 1 1 1 1 1 1 1 1 1 1 1 1 1 1 1 1 1 1 
        </DataArray>
        <DataArray type="Float32" Name="Density_Mixture" format="ascii">
106.137 106.138 106.126 106.139 259.612 258.977 106.138 106.139 231.441 230.916 335.153 335.166 365.187 361.444 106.138 106.138 124.187 132.207 108.258 110.134 110.296 104.957 106.138 106.138 126.861 127.118 106.138 106.138 106.138 106.138 106.138 106.138 105.866 106.13 106.138 106.138 106.138 106.138 106.138 97.2494 97.2495 106.138 106.138 106.138 106.133 105.764 105.757 106.133 106.138 106.138 106.138 106.138 91.4944 106.138 106.138 106.138 106.138 106.138 106.138 106.138 106.137 105.978 106.125 100.385 105.371 
        </DataArray>
        <DataArray type="Float32" Name="Pressure_Mixture" format="ascii">
6.27182e+06 6.27189e+06 6.27102e+06 6.27193e+06 1.52458e+07 1.52006e+07 6.27188e+06 6.27192e+06 1.36782e+07 1.36944e+07 1.72366e+07 1.72374e+07 1.92812e+07 1.9067e+07 6.27186e+06 6.27186e+06 7.57918e+06 8.14599e+06 6.42413e+06 6.5604e+06 6.57196e+06 6.18765e+06 6.27186e+06 6.27186e+06 7.78725e+06 7.80588e+06 6.27186e+06 6.27186e+06 6.27186e+06 6.27186e+06 6.27186e+06 6.27186e+06 6.25246e+06 6.27131e+06 6.27186e+06 6.27186e+06 6.27186e+06 6.27186e+06 6.27186e+06 5.63953e+06 5.63954e+06 6.27186e+06 6.27186e+06 6.27186e+06 6.27155e+06 6.24515e+06 6.24465e+06 6.27153e+06 6.27186e+06 6.27186e+06 6.27186e+06 6.27186e+06 5.31925e+06 6.27186e+06 6.27186e+06 6.27186e+06 6.27186e+06 6.27186e+06 6.27186e+06 6.27185e+06 6.27177e+06 6.26046e+06 6.27094e+06 5.8617e+06 6.21715e+06 
        </DataArray>
        <DataArray type="Float32" Name="Velocity_Mixture" NumberOfComponents="3" format="ascii">
-0.00128603 -2.25873e-05 0 0.000862738 0.000143007 0 -0.0198358 0.0219403 0 0.00178179 0.00505658 0 234.092 -13.8397 0 234.69 15.2751 0 0.00305857 0.00193437 0 0.00152003 0.00102821 0 215.525 45.7618 0 212.57 -38.2914 0 324.169 0.67715 0 324.163 -0.68025 0 300.618 -34.691 0 295.362 51.7861 0 2.53228e-06 3.15884e-06 0 -4.17284e-05 3.03384e-05 0 47.9838 -0.444013 0 45.0634 17.9058 0 4.88005 -2.17555 0 10.1205 -3.40045 0 9.95975 3.32979 0 -2.40516 -4.25097 0 0 0 0 0 0 0 55.2162 -11.1034 0 55.9117 12.0672 0 0 0 0 0 0 0 0 0 0 0 0 0 0 0 0 0 0 0 -0.427983 -0.0664786 0 -0.129059 -0.066651 0 0 0 0 0 0 0 0 0 0 0 0 0 0 0 0 5.55773 -1.41623 0 5.55773 1.41628 0 0 0 0 0 0 0 0 -1.33231e-05 0 0.00168842 -0.00298377 0 0.163826 -0.160083 0 0.182796 0.154068 0 0.00197537 0.00305344 0 0 1.70526e-05 0 0 0 0 0 0 0 0 0 0 35.2957 4.99165e-05 0 0 0 0 0 0 0 0 0 0 0 0 0 0 0 0 0 0 0 0.000240304 0 0 0.00075092 0.000155205 0 0.109338 0.0202726 0 0.0502287 -0.00187652 0 5.29538 -0.000316375 0 3.37414 -0.115663 0 
        </DataArray>
        <DataArray type="Float32" Name="gradRho" format="ascii">
0.00331159 0.000247315 0.0022386 0.0829564 64.5215 64.5846 1.60525 1.54034 62.3175 65.9634 52.4652 52.9128 31.7001 30.6924 0.000122193 0.000141727 38.2898 38.0104 5.29215 7.67385 7.10026 7.0735 8.03769e-06 1.19131e-06 50.4227 50.7165 0 4.58436e-09 3.11379e-09 2.09922e-07 1.25877e-07 0 0.35287 0.745164 0 0 0 0 0 0.930279 0.930308 0 2.83056e-08 1.219e-05 0.00161613 0.0635461 0.0609758 0.00148316 1.03039e-05 2.42066e-08 0 0 0.829728 0 0 1.81153e-09 5.74174e-09 3.20469e-06 1.15133e-06 0.000405474 0.000729072 0.0723624 0.0521411 2.04633 1.78236 
        </DataArray>
      </CellData>
    </Piece>
  </UnstructuredGrid>
</VTKFile>
