<?xml version="1.0"?>
<VTKFile type="UnstructuredGrid" version="0.1" byte_order="LittleEndian">
  <UnstructuredGrid>
    <Piece NumberOfPoints="50" NumberOfCells="65">
      <Points>
        <DataArray type="Float32" NumberOfComponents="3" format="ascii">
          0 5 0 0 -5 0 15 0.2 0 15 -0.2 0 35 0.2 0 35 -0.2 0 2.14286 4.31429 0 4.28571 3.62857 0 6.42857 2.94286 0 8.57143 2.25714 0 10.7143 1.57143 0 12.8571 0.885714 0 17.8571 0.2 0 20.7143 0.2 0 23.5714 0.2 0 26.4286 0.2 0 29.2857 0.2 0 32.1429 0.2 0 32.1429 -0.2 0 29.2857 -0.2 0 26.4286 -0.2 0 23.5714 -0.2 0 20.7143 -0.2 0 17.8571 -0.2 0 12.8571 -0.885714 0 10.7143 -1.57143 0 8.57143 -2.25714 0 6.42857 -2.94286 0 4.28571 -3.62857 0 2.14286 -4.31429 0 0 -2.5 0 0 -6.16307e-12 0 0 2.5 0 3.95974 -5.7158e-13 0 13.9286 -3.66374e-15 0 6.61813 2.81487e-12 0 2.86365 2.0434 0 2.86365 -2.0434 0 9.43036 1.987e-12 0 11.3926 2.79508e-14 0 4.83116 1.72297 0 4.83116 -1.72297 0 1.90629 -3.21031e-12 0 33.5714 0 0 16.4286 -1.80625e-18 0 25 6.93889e-18 0 19.2857 -6.93889e-18 0 30.7143 0 0 22.1429 0 0 27.8571 0 0 
        </DataArray>
      </Points>
      <Cells>
        <DataArray type="Int32" Name="connectivity" format="ascii">
          8 9 35 26 27 35 8 35 40 27 41 35 30 42 37 32 36 42 33 40 35 33 35 41 29 30 37 6 36 32 30 31 42 31 32 42 0 6 32 30 29 1 26 35 38 9 38 35 6 7 36 28 29 37 7 40 36 33 41 37 33 36 40 28 37 41 9 10 38 25 26 38 33 42 36 33 37 42 11 34 24 24 25 39 10 11 39 25 38 39 10 39 38 11 24 39 27 28 41 7 8 40 2 34 11 3 24 34 2 3 34 2 44 12 3 23 44 4 17 43 5 43 18 12 46 13 13 48 14 14 45 15 15 49 16 16 47 17 18 47 19 19 49 20 20 45 21 21 48 22 22 46 23 2 3 44 4 43 5 12 44 23 12 23 46 13 46 22 13 22 48 14 21 45 14 48 21 15 45 20 15 20 49 16 19 47 16 49 19 17 18 43 17 47 18 
        </DataArray>
        <DataArray type="Int32" Name="offsets" format="ascii">
          3 6 9 12 15 18 21 24 27 30 33 36 39 42 45 48 51 54 57 60 63 66 69 72 75 78 81 84 87 90 93 96 99 102 105 108 111 114 117 120 123 126 129 132 135 138 141 144 147 150 153 156 159 162 165 168 171 174 177 180 183 186 189 192 195 
        </DataArray>
        <DataArray type="UInt8" Name="types" format="ascii">
          5 5 5 5 5 5 5 5 5 5 5 5 5 5 5 5 5 5 5 5 5 5 5 5 5 5 5 5 5 5 5 5 5 5 5 5 5 5 5 5 5 5 5 5 5 5 5 5 5 5 5 5 5 5 5 5 5 5 5 5 5 5 5 5 5 
        </DataArray>
      </Cells>
      <CellData>
        <DataArray type="Float32" Name="F0_Alpha_SG_co2liq_mod.xml" format="ascii">
1.7231e-10 1.72368e-10 1.70989e-10 1.71402e-10 1.65186e-10 1.65102e-10 1.68012e-10 1.67789e-10 1.63994e-10 1.63845e-10 1.67757e-10 1.67757e-10 1.62243e-10 1.62542e-10 1.72678e-10 1.72631e-10 1.63169e-10 1.62931e-10 1.63671e-10 1.64574e-10 1.64903e-10 1.63219e-10 1.72682e-10 1.72682e-10 1.6496e-10 1.64997e-10 1.72682e-10 1.72682e-10 1.72682e-10 1.72682e-10 1.72684e-10 1.72682e-10 1.67039e-10 1.6737e-10 1.72682e-10 1.72682e-10 1.72682e-10 1.72682e-10 1.72682e-10 1.73303e-10 1.73303e-10 1.72682e-10 1.72682e-10 1.72684e-10 1.7271e-10 1.7288e-10 1.7288e-10 1.7271e-10 1.72684e-10 1.72682e-10 1.72682e-10 1.72682e-10 1.73341e-10 1.72682e-10 1.72682e-10 1.72682e-10 1.72682e-10 1.72683e-10 1.72682e-10 1.72685e-10 1.727e-10 1.72831e-10 1.72722e-10 1.73222e-10 1.72929e-10 
        </DataArray>
        <DataArray type="Float32" Name="F0_Density_SG_co2liq_mod.xml" format="ascii">
5920.05 5916.54 5995.39 5971.42 6487.94 6493.28 6172.17 6185.06 6569.02 6576.94 6346.52 6346.49 6710.91 6690.75 5897.38 5900.38 6550.39 6567.62 6452.05 6426.39 6407.43 6477.03 5897.11 5897.14 6450.2 6447.86 5897.13 5897.13 5897.12 5897.12 5897.01 5897.13 6212.43 6193.03 5897.13 5897.13 5897.13 5897.13 5897.13 5854.72 5854.72 5897.13 5897.12 5897 5895.33 5884.29 5884.29 5895.33 5897 5897.12 5897.13 5897.13 5848.01 5897.13 5897.13 5897.13 5897.13 5897.06 5897.12 5896.92 5895.95 5887.52 5894.58 5860.74 5880.99 
        </DataArray>
        <DataArray type="Float32" Name="F0_Temperature_SG_co2liq_mod.xml" format="ascii">
41.8468 41.8374 42.0079 41.9637 42.4164 42.4184 42.2282 42.2396 42.4446 42.447 42.3512 42.3512 42.4821 42.4776 41.7815 41.7908 42.4386 42.4441 42.402 42.3909 42.3822 42.4121 41.7806 41.7807 42.4012 42.4002 41.7807 41.7807 41.7806 41.7806 41.7803 41.7807 42.2623 42.2464 41.7807 41.7807 41.7807 41.7807 41.7807 41.6168 41.6168 41.7807 41.7807 41.7803 41.775 41.738 41.738 41.775 41.7803 41.7807 41.7807 41.7807 41.5828 41.7807 41.7807 41.7807 41.7807 41.7804 41.7806 41.78 41.7769 41.7492 41.7726 41.6449 41.7263 
        </DataArray>
        <DataArray type="Float32" Name="F0_Mass fraction_SG_co2liq_mod.xml" format="ascii">
8.75278e-09 8.86684e-09 6.97047e-09 7.46115e-09 2.46852e-09 2.45655e-09 4.7092e-09 4.60857e-09 2.28603e-09 2.27526e-09 2.76181e-09 2.76188e-09 1.98939e-09 2.01951e-09 9.5839e-09 9.46035e-09 2.5341e-09 2.4882e-09 3.08577e-09 3.02093e-09 3.07816e-09 3.01784e-09 9.59528e-09 9.59412e-09 2.74147e-09 2.74811e-09 9.5944e-09 9.59441e-09 9.595e-09 9.59491e-09 9.59944e-09 9.59443e-09 4.59585e-09 4.74925e-09 9.5944e-09 9.5944e-09 9.5944e-09 9.5944e-09 9.5944e-09 1.20108e-08 1.20107e-08 9.59441e-09 9.59463e-09 9.59989e-09 9.67095e-09 1.01792e-08 1.01788e-08 9.67101e-09 9.59993e-09 9.59463e-09 9.59441e-09 9.5944e-09 1.2824e-08 9.5944e-09 9.5944e-09 9.59441e-09 9.59451e-09 9.59752e-09 9.59483e-09 9.60342e-09 9.64442e-09 1.0023e-08 9.70325e-09 1.15612e-08 1.03487e-08 
        </DataArray>
        <DataArray type="Float32" Name="F1_Alpha_SG_co2gas_mod.xml" format="ascii">
1 1 1 1 1 1 1 1 1 1 1 1 1 1 1 1 1 1 1 1 1 1 1 1 1 1 1 1 1 1 1 1 1 1 1 1 1 1 1 1 1 1 1 1 1 1 1 1 1 1 1 1 1 1 1 1 1 1 1 1 1 1 1 1 1 
        </DataArray>
        <DataArray type="Float32" Name="F1_Density_SG_co2gas_mod.xml" format="ascii">
116.544 115.016 147.07 137.179 434.152 436.405 220.207 225.186 471.245 473.617 385.497 385.486 547.301 538.513 106.256 107.669 421.775 430.058 342.22 350.096 343.258 350.309 106.128 106.141 388.122 387.13 106.138 106.138 106.131 106.132 106.081 106.137 225.794 218.251 106.138 106.138 106.138 106.138 106.138 84.477 84.4779 106.138 106.135 106.076 105.283 99.9366 99.9404 105.282 106.076 106.135 106.138 106.138 79.0475 106.138 106.138 106.138 106.137 106.103 106.133 106.036 105.577 101.522 104.926 87.8123 98.2728 
        </DataArray>
        <DataArray type="Float32" Name="F1_Temperature_SG_co2gas_mod.xml" format="ascii">
469.664 469.077 480.875 479.581 371.554 371.765 476.014 476.078 372.156 373.179 353.888 353.888 364.933 364.496 466.417 466.799 408.166 407.233 453.046 429.998 428.847 455.049 466.383 466.386 398.63 398.592 466.385 466.385 466.384 466.384 466.37 466.385 497.095 497.941 466.385 466.385 466.385 466.385 466.385 460.486 460.487 466.385 466.385 466.369 466.16 464.736 464.733 466.159 466.369 466.385 466.385 466.385 468.633 466.385 466.385 466.385 466.385 466.376 466.384 466.359 466.237 465.155 466.071 461.334 464.434 
        </DataArray>
        <DataArray type="Float32" Name="F1_Mass fraction_SG_co2gas_mod.xml" format="ascii">
1 1 1 1 1 1 1 1 1 1 1 1 1 1 1 1 1 1 1 1 1 1 1 1 1 1 1 1 1 1 1 1 1 1 1 1 1 1 1 1 1 1 1 1 1 1 1 1 1 1 1 1 1 1 1 1 1 1 1 1 1 1 1 1 1 
        </DataArray>
        <DataArray type="Float32" Name="Density_Mixture" format="ascii">
116.544 115.016 147.07 137.179 434.152 436.405 220.207 225.186 471.245 473.617 385.497 385.486 547.301 538.513 106.256 107.669 421.775 430.058 342.22 350.096 343.258 350.309 106.128 106.141 388.122 387.13 106.138 106.138 106.131 106.132 106.081 106.137 225.794 218.251 106.138 106.138 106.138 106.138 106.138 84.477 84.4779 106.138 106.135 106.076 105.283 99.9366 99.9404 105.282 106.076 106.135 106.138 106.138 79.0475 106.138 106.138 106.138 106.137 106.103 106.133 106.036 105.577 101.522 104.926 87.8123 98.2728 
        </DataArray>
        <DataArray type="Float32" Name="Pressure_Mixture" format="ascii">
7.02888e+06 6.91534e+06 9.34044e+06 8.627e+06 2.24396e+07 2.25739e+07 1.42712e+07 1.4616e+07 2.44735e+07 2.46712e+07 1.88407e+07 1.88402e+07 2.79947e+07 2.74969e+07 6.28033e+06 6.38156e+06 2.40075e+07 2.44383e+07 2.1533e+07 2.08822e+07 2.03999e+07 2.21643e+07 6.27115e+06 6.27209e+06 2.14861e+07 2.14268e+07 6.27186e+06 6.27185e+06 6.27137e+06 6.27145e+06 6.2678e+06 6.27183e+06 1.53441e+07 1.48286e+07 6.27186e+06 6.27186e+06 6.27186e+06 6.27186e+06 6.27186e+06 4.73901e+06 4.73908e+06 6.27185e+06 6.27168e+06 6.26744e+06 6.21076e+06 5.82982e+06 5.83004e+06 6.21071e+06 6.26741e+06 6.27167e+06 6.27185e+06 6.27186e+06 4.4706e+06 6.27186e+06 6.27186e+06 6.27185e+06 6.27177e+06 6.26935e+06 6.27151e+06 6.26461e+06 6.23181e+06 5.94248e+06 6.18536e+06 4.97186e+06 5.71372e+06 
        </DataArray>
        <DataArray type="Float32" Name="Velocity_Mixture" NumberOfComponents="3" format="ascii">
28.5761 -1.23175 0 17.5464 4.20322 0 88.1768 -7.97374 0 71.2666 -6.02466 0 322.266 15.5804 0 322.648 -18.568 0 208.506 -8.0233 0 213.885 10.6166 0 309.206 45.0578 0 309.144 -45.1616 0 343.539 0.089658 0 343.542 -0.0872217 0 287.749 -42.7291 0 289.314 45.4277 0 0.148006 -0.669018 0 3.5606 -1.77079 0 289.308 -62.9702 0 292.073 76.3029 0 275.698 -53.4906 0 275.929 25.5508 0 279.831 -16.4434 0 268.603 77.1802 0 -0.310578 -0.26818 0 0.0127428 -0.00549 0 295.856 -15.4295 0 295.693 16.9077 0 1.4247e-05 0 0 -0.000104756 6.50309e-05 0 -0.0158118 -0.0042948 0 -0.00311127 0.0161416 0 -0.115076 0.0959461 0 -0.000583327 0.00085438 0 182.154 59.5923 0 201.68 -32.6724 0 0 0 0 0 0 0 0 0 0 0 0 0 0 0 0 24.1855 -0.794562 0 24.1885 0.798586 0 0 -2.69648e-05 0 0.00118696 -0.000924439 0 0.0317369 -0.0168849 0 0.488972 -0.157552 0 4.35569 -0.638172 0 4.38077 0.627472 0 0.509177 0.150447 0 0.0337414 0.0163038 0 0.00129458 0.00090392 0 0 2.93064e-05 0 0 0 0 65.0432 0.00500115 0 0 0 0 0 0 0 0.000564408 -2.9862e-06 0 0.000981783 0.000121922 0 0.032029 0.00310986 0 0.0211865 -0.000601157 0 0.456129 -0.0111985 0 0.611776 0.0397429 0 6.66847 0.131436 0 5.40048 -0.107156 0 40.4522 -0.00351226 0 31.7972 -0.130793 0 
        </DataArray>
        <DataArray type="Float32" Name="gradRho" format="ascii">
10.2424 7.82144 30.3989 32.0024 21.8713 22.2605 62.5779 66.3844 37.2873 41.8685 33.7929 35.3628 17.396 15.8813 2.21491 3.13184 33.5123 30.2324 73.0668 54.4742 56.217 73.4217 0.532414 0.0410181 30.9565 27.9438 0.00015649 0.00209842 0.0195694 0.0262761 0.0152393 0.00284105 56.234 53.2201 4.42891e-06 5.0651e-06 8.05187e-07 2.76128e-07 2.29331e-07 0.830618 0.830924 1.45737e-05 0.000363009 0.00582418 0.049607 0.235076 0.235251 0.0494877 0.00570562 0.000348255 1.19756e-05 1.02904e-07 0.782867 7.84548e-06 1.1743e-05 0.000395296 0.00051458 0.013182 0.0108071 0.164396 0.188968 1.34369 1.22578 3.98169 3.82127 
        </DataArray>
      </CellData>
    </Piece>
  </UnstructuredGrid>
</VTKFile>
