<?xml version="1.0"?>
<VTKFile type="UnstructuredGrid" version="0.1" byte_order="LittleEndian">
  <UnstructuredGrid>
    <Piece NumberOfPoints="50" NumberOfCells="65">
      <Points>
        <DataArray type="Float32" NumberOfComponents="3" format="ascii">
          0 5 0 0 -5 0 15 0.2 0 15 -0.2 0 35 0.2 0 35 -0.2 0 2.14286 4.31429 0 4.28571 3.62857 0 6.42857 2.94286 0 8.57143 2.25714 0 10.7143 1.57143 0 12.8571 0.885714 0 17.8571 0.2 0 20.7143 0.2 0 23.5714 0.2 0 26.4286 0.2 0 29.2857 0.2 0 32.1429 0.2 0 32.1429 -0.2 0 29.2857 -0.2 0 26.4286 -0.2 0 23.5714 -0.2 0 20.7143 -0.2 0 17.8571 -0.2 0 12.8571 -0.885714 0 10.7143 -1.57143 0 8.57143 -2.25714 0 6.42857 -2.94286 0 4.28571 -3.62857 0 2.14286 -4.31429 0 0 -2.5 0 0 -6.16307e-12 0 0 2.5 0 3.95974 -5.7158e-13 0 13.9286 -3.66374e-15 0 6.61813 2.81487e-12 0 2.86365 2.0434 0 2.86365 -2.0434 0 9.43036 1.987e-12 0 11.3926 2.79508e-14 0 4.83116 1.72297 0 4.83116 -1.72297 0 1.90629 -3.21031e-12 0 33.5714 0 0 16.4286 -1.80625e-18 0 25 6.93889e-18 0 19.2857 -6.93889e-18 0 30.7143 0 0 22.1429 0 0 27.8571 0 0 
        </DataArray>
      </Points>
      <Cells>
        <DataArray type="Int32" Name="connectivity" format="ascii">
          8 9 35 26 27 35 8 35 40 27 41 35 30 42 37 32 36 42 33 40 35 33 35 41 29 30 37 6 36 32 30 31 42 31 32 42 0 6 32 30 29 1 26 35 38 9 38 35 6 7 36 28 29 37 7 40 36 33 41 37 33 36 40 28 37 41 9 10 38 25 26 38 33 42 36 33 37 42 11 34 24 24 25 39 10 11 39 25 38 39 10 39 38 11 24 39 27 28 41 7 8 40 2 34 11 3 24 34 2 3 34 2 44 12 3 23 44 4 17 43 5 43 18 12 46 13 13 48 14 14 45 15 15 49 16 16 47 17 18 47 19 19 49 20 20 45 21 21 48 22 22 46 23 2 3 44 4 43 5 12 44 23 12 23 46 13 46 22 13 22 48 14 21 45 14 48 21 15 45 20 15 20 49 16 19 47 16 49 19 17 18 43 17 47 18 
        </DataArray>
        <DataArray type="Int32" Name="offsets" format="ascii">
          3 6 9 12 15 18 21 24 27 30 33 36 39 42 45 48 51 54 57 60 63 66 69 72 75 78 81 84 87 90 93 96 99 102 105 108 111 114 117 120 123 126 129 132 135 138 141 144 147 150 153 156 159 162 165 168 171 174 177 180 183 186 189 192 195 
        </DataArray>
        <DataArray type="UInt8" Name="types" format="ascii">
          5 5 5 5 5 5 5 5 5 5 5 5 5 5 5 5 5 5 5 5 5 5 5 5 5 5 5 5 5 5 5 5 5 5 5 5 5 5 5 5 5 5 5 5 5 5 5 5 5 5 5 5 5 5 5 5 5 5 5 5 5 5 5 5 5 
        </DataArray>
      </Cells>
      <CellData>
        <DataArray type="Float32" Name="F0_Alpha_SG_co2liq_mod.xml" format="ascii">
1.72682e-10 1.72682e-10 1.72682e-10 1.72682e-10 1.71986e-10 1.71986e-10 1.72682e-10 1.72682e-10 1.72173e-10 1.72187e-10 1.70059e-10 1.70058e-10 1.70054e-10 1.70052e-10 1.72682e-10 1.72682e-10 1.72688e-10 1.72693e-10 1.72685e-10 1.72682e-10 1.72682e-10 1.72683e-10 1.72682e-10 1.72682e-10 1.72701e-10 1.72701e-10 1.72682e-10 1.72682e-10 1.72682e-10 1.72682e-10 1.72682e-10 1.72682e-10 1.72682e-10 1.72682e-10 1.72682e-10 1.72682e-10 1.72682e-10 1.72682e-10 1.72682e-10 1.72761e-10 1.72761e-10 1.72682e-10 1.72682e-10 1.72682e-10 1.72682e-10 1.72682e-10 1.72682e-10 1.72682e-10 1.72682e-10 1.72682e-10 1.72682e-10 1.72682e-10 1.72886e-10 1.72682e-10 1.72682e-10 1.72682e-10 1.72682e-10 1.72682e-10 1.72682e-10 1.72682e-10 1.72682e-10 1.72682e-10 1.72682e-10 1.72701e-10 1.72683e-10 
        </DataArray>
        <DataArray type="Float32" Name="F0_Density_SG_co2liq_mod.xml" format="ascii">
5897.13 5897.13 5897.13 5897.13 5943.26 5943.24 5897.13 5897.13 5930.99 5930.06 6105.72 6105.74 6101.27 6101.18 5897.13 5897.13 5896.75 5896.45 5896.96 5897.11 5897.11 5897.08 5897.13 5897.13 5895.9 5895.9 5897.13 5897.13 5897.13 5897.13 5897.13 5897.13 5897.13 5897.13 5897.13 5897.13 5897.13 5897.13 5897.13 5892.05 5892.05 5897.13 5897.13 5897.13 5897.13 5897.12 5897.12 5897.13 5897.13 5897.13 5897.13 5897.13 5882.83 5897.13 5897.13 5897.13 5897.13 5897.13 5897.13 5897.13 5897.13 5897.13 5897.13 5895.91 5897.08 
        </DataArray>
        <DataArray type="Float32" Name="F0_Temperature_SG_co2liq_mod.xml" format="ascii">
41.7807 41.7807 41.7807 41.7807 41.904 41.904 41.7807 41.7807 41.8748 41.8725 42.1616 42.1616 42.1566 42.1564 41.7807 41.7807 41.7795 41.7785 41.7801 41.7806 41.7806 41.7805 41.7807 41.7807 41.7768 41.7768 41.7807 41.7807 41.7807 41.7807 41.7807 41.7807 41.7807 41.7807 41.7807 41.7807 41.7807 41.7807 41.7807 41.7644 41.7644 41.7807 41.7807 41.7807 41.7807 41.7806 41.7806 41.7807 41.7807 41.7807 41.7807 41.7807 41.7329 41.7807 41.7807 41.7807 41.7807 41.7807 41.7807 41.7807 41.7807 41.7807 41.7807 41.7768 41.7805 
        </DataArray>
        <DataArray type="Float32" Name="F0_Mass fraction_SG_co2liq_mod.xml" format="ascii">
9.5944e-09 9.5944e-09 9.5944e-09 9.5944e-09 7.93335e-09 7.93387e-09 9.5944e-09 9.5944e-09 8.31155e-09 8.3407e-09 4.60672e-09 4.60661e-09 4.6994e-09 4.70249e-09 9.5944e-09 9.5944e-09 9.61061e-09 9.62332e-09 9.60141e-09 9.59518e-09 9.59524e-09 9.59653e-09 9.5944e-09 9.5944e-09 9.64655e-09 9.64646e-09 9.5944e-09 9.5944e-09 9.5944e-09 9.5944e-09 9.5944e-09 9.5944e-09 9.59439e-09 9.59446e-09 9.5944e-09 9.5944e-09 9.5944e-09 9.5944e-09 9.5944e-09 9.81494e-09 9.81494e-09 9.5944e-09 9.5944e-09 9.5944e-09 9.5944e-09 9.59476e-09 9.59486e-09 9.5944e-09 9.5944e-09 9.5944e-09 9.5944e-09 9.5944e-09 1.03071e-08 9.5944e-09 9.5944e-09 9.5944e-09 9.5944e-09 9.5944e-09 9.5944e-09 9.5944e-09 9.5944e-09 9.59444e-09 9.5944e-09 9.64588e-09 9.59663e-09 
        </DataArray>
        <DataArray type="Float32" Name="F1_Alpha_SG_co2gas_mod.xml" format="ascii">
1 1 1 1 1 1 1 1 1 1 1 1 1 1 1 1 1 1 1 1 1 1 1 1 1 1 1 1 1 1 1 1 1 1 1 1 1 1 1 1 1 1 1 1 1 1 1 1 1 1 1 1 1 1 1 1 1 1 1 1 1 1 1 1 1 
        </DataArray>
        <DataArray type="Float32" Name="F1_Density_SG_co2gas_mod.xml" format="ascii">
106.138 106.138 106.138 106.138 128.843 128.835 106.138 106.138 122.86 122.421 225.395 225.4 220.783 220.632 106.138 106.138 105.956 105.813 106.059 106.129 106.128 106.114 106.138 106.138 105.554 105.555 106.138 106.138 106.138 106.138 106.138 106.138 106.138 106.137 106.138 106.138 106.138 106.138 106.138 103.711 103.711 106.138 106.138 106.138 106.138 106.134 106.133 106.138 106.138 106.138 106.138 106.138 98.6757 106.138 106.138 106.138 106.138 106.138 106.138 106.138 106.138 106.137 106.138 105.561 106.113 
        </DataArray>
        <DataArray type="Float32" Name="F1_Temperature_SG_co2gas_mod.xml" format="ascii">
466.385 466.385 466.385 466.385 464.339 464.338 466.385 466.385 465.234 465.239 409.73 409.731 414.453 414.654 466.385 466.385 466.338 466.301 466.365 466.383 466.383 466.379 466.385 466.385 466.235 466.236 466.385 466.385 466.385 466.385 466.385 466.385 466.385 466.385 466.385 466.385 466.385 466.385 466.385 465.753 465.753 466.385 466.385 466.385 466.385 466.384 466.384 466.385 466.385 466.385 466.385 466.385 467.11 466.385 466.385 466.385 466.385 466.385 466.385 466.385 466.385 466.385 466.385 466.234 466.379 
        </DataArray>
        <DataArray type="Float32" Name="F1_Mass fraction_SG_co2gas_mod.xml" format="ascii">
1 1 1 1 1 1 1 1 1 1 1 1 1 1 1 1 1 1 1 1 1 1 1 1 1 1 1 1 1 1 1 1 1 1 1 1 1 1 1 1 1 1 1 1 1 1 1 1 1 1 1 1 1 1 1 1 1 1 1 1 1 1 1 1 1 
        </DataArray>
        <DataArray type="Float32" Name="Density_Mixture" format="ascii">
106.138 106.138 106.138 106.138 128.843 128.835 106.138 106.138 122.86 122.421 225.395 225.4 220.783 220.632 106.138 106.138 105.956 105.813 106.059 106.129 106.128 106.114 106.138 106.138 105.554 105.555 106.138 106.138 106.138 106.138 106.138 106.138 106.138 106.137 106.138 106.138 106.138 106.138 106.138 103.711 103.711 106.138 106.138 106.138 106.138 106.134 106.133 106.138 106.138 106.138 106.138 106.138 98.6757 106.138 106.138 106.138 106.138 106.138 106.138 106.138 106.138 106.137 106.138 105.561 106.113 
        </DataArray>
        <DataArray type="Float32" Name="Pressure_Mixture" format="ascii">
6.27186e+06 6.27186e+06 6.27186e+06 6.27186e+06 7.76498e+06 7.76438e+06 6.27186e+06 6.27186e+06 7.3791e+06 7.34971e+06 1.2468e+07 1.24683e+07 1.23455e+07 1.23428e+07 6.27186e+06 6.27186e+06 6.25885e+06 6.24867e+06 6.26622e+06 6.27123e+06 6.27118e+06 6.27015e+06 6.27186e+06 6.27186e+06 6.23018e+06 6.23025e+06 6.27186e+06 6.27186e+06 6.27186e+06 6.27186e+06 6.27186e+06 6.27186e+06 6.27187e+06 6.27181e+06 6.27186e+06 6.27186e+06 6.27186e+06 6.27186e+06 6.27186e+06 6.09871e+06 6.09871e+06 6.27186e+06 6.27186e+06 6.27186e+06 6.27186e+06 6.27157e+06 6.27149e+06 6.27186e+06 6.27186e+06 6.27186e+06 6.27186e+06 6.27186e+06 5.77896e+06 6.27186e+06 6.27186e+06 6.27186e+06 6.27186e+06 6.27186e+06 6.27186e+06 6.27186e+06 6.27186e+06 6.27183e+06 6.27186e+06 6.23066e+06 6.27006e+06 
        </DataArray>
        <DataArray type="Float32" Name="Velocity_Mixture" NumberOfComponents="3" format="ascii">
0 0 0 0 0 0 -5.63078e-06 8.9896e-06 0 0 0 0 59.3652 -14.3552 0 59.384 14.4405 0 -4.30168e-05 1.85145e-05 0 0 0 0 43.0621 17.4183 0 42.7757 -16.0446 0 242.319 1.69523 0 242.312 -1.70047 0 228.262 -9.65423 0 223.991 22.718 0 0 0 0 0 0 0 -0.998893 -0.559892 0 -0.759667 0.195848 0 -0.151476 0.128083 0 -0.018929 0.00802651 0 -0.0181053 -0.00204314 0 -0.0469154 -0.0390077 0 0 0 0 0 0 0 -1.32531 0.572218 0 -1.32317 -0.571016 0 0 0 0 0 0 0 0 0 0 0 0 0 0 0 0 0 0 0 0.000265696 -6.20499e-05 0 -0.00169883 -0.000451898 0 0 0 0 0 0 0 0 0 0 0 0 0 0 0 0 1.04756 -1.46407 0 1.04756 1.46407 0 0 0 0 0 0 0 0 0 0 0 0 0 0.00139972 -0.00516889 0 0.00191017 0.0062949 0 0 0 0 0 0 0 0 0 0 0 0 0 0 0 0 13.2466 0 0 0 0 0 0 0 0 0 0 0 0 0 0 0 0 0 0 0 0 0 0 0 0 0 0 0.000269766 0.000121582 0 2.89446e-05 0 0 0.345757 0 0 0.0828542 -0.00351916 0 
        </DataArray>
        <DataArray type="Float32" Name="gradRho" format="ascii">
1.1137e-06 8.42015e-07 0.000211996 3.40744e-05 36.1144 36.1648 0.00364922 0.00338086 29.3741 29.2734 67.0569 67.0657 23.2221 23.083 1.30676e-09 7.98814e-09 5.42663 5.58244 0.0745083 0.195825 0.191552 0.105491 1.97637e-10 0 7.82542 7.82831 0 0 0 0 0 0 0.00840195 0.0274507 0 0 0 0 0 0.958549 0.958549 0 0 5.46415e-10 2.54692e-06 0.00482456 0.00431047 2.35958e-06 5.46415e-10 0 0 0 0.725961 0 0 0 0 0 0 4.38235e-08 2.38141e-07 0.00078163 0.000144909 0.370834 0.194977 
        </DataArray>
      </CellData>
    </Piece>
  </UnstructuredGrid>
</VTKFile>
