<?xml version="1.0"?>
<VTKFile type="UnstructuredGrid" version="0.1" byte_order="LittleEndian">
  <UnstructuredGrid>
    <Piece NumberOfPoints="50" NumberOfCells="65">
      <Points>
        <DataArray type="Float32" NumberOfComponents="3" format="ascii">
          0 5 0 0 -5 0 15 0.2 0 15 -0.2 0 35 0.2 0 35 -0.2 0 2.14286 4.31429 0 4.28571 3.62857 0 6.42857 2.94286 0 8.57143 2.25714 0 10.7143 1.57143 0 12.8571 0.885714 0 17.8571 0.2 0 20.7143 0.2 0 23.5714 0.2 0 26.4286 0.2 0 29.2857 0.2 0 32.1429 0.2 0 32.1429 -0.2 0 29.2857 -0.2 0 26.4286 -0.2 0 23.5714 -0.2 0 20.7143 -0.2 0 17.8571 -0.2 0 12.8571 -0.885714 0 10.7143 -1.57143 0 8.57143 -2.25714 0 6.42857 -2.94286 0 4.28571 -3.62857 0 2.14286 -4.31429 0 0 -2.5 0 0 -6.16307e-12 0 0 2.5 0 3.95974 -5.7158e-13 0 13.9286 -3.66374e-15 0 6.61813 2.81487e-12 0 2.86365 2.0434 0 2.86365 -2.0434 0 9.43036 1.987e-12 0 11.3926 2.79508e-14 0 4.83116 1.72297 0 4.83116 -1.72297 0 1.90629 -3.21031e-12 0 33.5714 0 0 16.4286 -1.80625e-18 0 25 6.93889e-18 0 19.2857 -6.93889e-18 0 30.7143 0 0 22.1429 0 0 27.8571 0 0 
        </DataArray>
      </Points>
      <Cells>
        <DataArray type="Int32" Name="connectivity" format="ascii">
          8 9 35 26 27 35 8 35 40 27 41 35 30 42 37 32 36 42 33 40 35 33 35 41 29 30 37 6 36 32 30 31 42 31 32 42 0 6 32 30 29 1 26 35 38 9 38 35 6 7 36 28 29 37 7 40 36 33 41 37 33 36 40 28 37 41 9 10 38 25 26 38 33 42 36 33 37 42 11 34 24 24 25 39 10 11 39 25 38 39 10 39 38 11 24 39 27 28 41 7 8 40 2 34 11 3 24 34 2 3 34 2 44 12 3 23 44 4 17 43 5 43 18 12 46 13 13 48 14 14 45 15 15 49 16 16 47 17 18 47 19 19 49 20 20 45 21 21 48 22 22 46 23 2 3 44 4 43 5 12 44 23 12 23 46 13 46 22 13 22 48 14 21 45 14 48 21 15 45 20 15 20 49 16 19 47 16 49 19 17 18 43 17 47 18 
        </DataArray>
        <DataArray type="Int32" Name="offsets" format="ascii">
          3 6 9 12 15 18 21 24 27 30 33 36 39 42 45 48 51 54 57 60 63 66 69 72 75 78 81 84 87 90 93 96 99 102 105 108 111 114 117 120 123 126 129 132 135 138 141 144 147 150 153 156 159 162 165 168 171 174 177 180 183 186 189 192 195 
        </DataArray>
        <DataArray type="UInt8" Name="types" format="ascii">
          5 5 5 5 5 5 5 5 5 5 5 5 5 5 5 5 5 5 5 5 5 5 5 5 5 5 5 5 5 5 5 5 5 5 5 5 5 5 5 5 5 5 5 5 5 5 5 5 5 5 5 5 5 5 5 5 5 5 5 5 5 5 5 5 5 
        </DataArray>
      </Cells>
      <CellData>
        <DataArray type="Float32" Name="F0_Alpha_SG_co2liq_mod.xml" format="ascii">
1.68762e-10 1.68218e-10 1.64871e-10 1.65285e-10 1.64978e-10 1.64892e-10 1.64061e-10 1.63701e-10 1.63285e-10 1.63247e-10 1.67782e-10 1.67782e-10 1.60678e-10 1.60978e-10 1.72096e-10 1.71662e-10 1.62274e-10 1.62524e-10 1.61801e-10 1.62518e-10 1.63127e-10 1.61295e-10 1.72613e-10 1.72704e-10 1.63896e-10 1.6392e-10 1.72682e-10 1.72682e-10 1.72688e-10 1.72688e-10 1.72693e-10 1.72683e-10 1.61939e-10 1.61991e-10 1.72682e-10 1.72682e-10 1.72682e-10 1.72682e-10 1.72682e-10 1.7338e-10 1.7338e-10 1.72682e-10 1.72683e-10 1.72692e-10 1.72757e-10 1.73001e-10 1.73001e-10 1.72757e-10 1.72692e-10 1.72683e-10 1.72682e-10 1.72682e-10 1.73408e-10 1.72682e-10 1.72682e-10 1.72682e-10 1.72682e-10 1.72688e-10 1.72683e-10 1.72696e-10 1.72736e-10 1.72939e-10 1.72779e-10 1.73315e-10 1.73057e-10 
        </DataArray>
        <DataArray type="Float32" Name="F0_Density_SG_co2liq_mod.xml" format="ascii">
6119.66 6148.95 6336.84 6315.17 6522.23 6527.37 6445.69 6468.02 6638.95 6641.26 6347.77 6347.75 6824.69 6804.07 5932.75 5958.19 6660.74 6647.32 6638.07 6607.43 6573.3 6666.78 5901.53 5895.71 6554.51 6552.96 5897.13 5897.12 5896.74 5896.78 5896.4 5897.07 6547.62 6542.01 5897.13 5897.13 5897.13 5897.13 5897.13 5848.75 5848.75 5897.13 5897.08 5896.52 5892.33 5876.22 5876.22 5892.34 5896.51 5897.08 5897.13 5897.13 5842.81 5897.13 5897.13 5897.13 5897.1 5896.73 5897.05 5896.25 5893.66 5880.37 5890.89 5853.89 5872.28 
        </DataArray>
        <DataArray type="Float32" Name="F0_Temperature_SG_co2liq_mod.xml" format="ascii">
42.1768 42.2066 42.3458 42.3332 42.429 42.4308 42.3993 42.4085 42.4648 42.4654 42.3519 42.3519 42.5038 42.5004 41.8792 41.9368 42.4704 42.4669 42.4645 42.4561 42.4459 42.4719 41.7943 41.7762 42.4399 42.4394 41.7807 41.7806 41.7795 41.7796 41.7784 41.7805 42.4377 42.4358 41.7807 41.7807 41.7807 41.7807 41.7807 41.5867 41.5867 41.7807 41.7805 41.7787 41.7653 41.7086 41.7086 41.7653 41.7787 41.7805 41.7807 41.7807 41.554 41.7807 41.7807 41.7807 41.7806 41.7794 41.7804 41.7779 41.7696 41.724 41.7605 41.6128 41.6934 
        </DataArray>
        <DataArray type="Float32" Name="F0_Mass fraction_SG_co2liq_mod.xml" format="ascii">
5.31954e-09 5.06353e-09 3.84796e-09 3.93885e-09 2.33508e-09 2.32576e-09 3.01807e-09 2.94688e-09 2.10616e-09 2.10291e-09 2.74739e-09 2.74746e-09 1.82436e-09 1.85e-09 8.36544e-09 7.70266e-09 2.16903e-09 2.18529e-09 2.34685e-09 2.36385e-09 2.41989e-09 2.30275e-09 9.41386e-09 9.65462e-09 2.37107e-09 2.37419e-09 9.59425e-09 9.59478e-09 9.61069e-09 9.6093e-09 9.62522e-09 9.59683e-09 2.84688e-09 2.87341e-09 9.59435e-09 9.59439e-09 9.5944e-09 9.5944e-09 9.5944e-09 1.25086e-08 1.25085e-08 9.5945e-09 9.59638e-09 9.62031e-09 9.80222e-09 1.05997e-08 1.05998e-08 9.80173e-09 9.62036e-09 9.5964e-09 9.5945e-09 9.5944e-09 1.33192e-08 9.59441e-09 9.59445e-09 9.59457e-09 9.59556e-09 9.61128e-09 9.59758e-09 9.63148e-09 9.74318e-09 1.03771e-08 9.86715e-09 1.20726e-08 1.08284e-08 
        </DataArray>
        <DataArray type="Float32" Name="F1_Alpha_SG_co2gas_mod.xml" format="ascii">
1 1 1 1 1 1 1 1 1 1 1 1 1 1 1 1 1 1 1 1 1 1 1 1 1 1 1 1 1 1 1 1 1 1 1 1 1 1 1 1 1 1 1 1 1 1 1 1 1 1 1 1 1 1 1 1 1 1 1 1 1 1 1 1 1 
        </DataArray>
        <DataArray type="Float32" Name="F1_Density_SG_co2gas_mod.xml" format="ascii">
194.145 204.277 271.511 265.001 460.807 462.776 350.385 359.301 514.7 515.555 387.656 387.646 601.078 592.058 122.05 132.785 498.316 494.372 457.656 454.27 443.113 466.972 108.211 105.464 453.067 452.434 106.139 106.133 105.955 105.97 105.792 106.11 372.448 368.811 106.138 106.138 106.138 106.138 106.138 81.0687 81.0691 106.137 106.115 105.847 103.848 95.9072 95.9065 103.853 105.846 106.115 106.137 106.138 76.0698 106.138 106.137 106.136 106.125 105.948 106.102 105.722 104.488 97.9991 103.153 84.0385 93.8493 
        </DataArray>
        <DataArray type="Float32" Name="F1_Temperature_SG_co2gas_mod.xml" format="ascii">
489.29 491.969 496.114 493.701 363.003 363.385 439.306 439.28 364.127 364.29 352.495 352.494 364.449 364.103 471.49 474.547 383.597 382.002 409.183 400.64 397.451 411.558 466.926 466.21 381.55 381.49 466.386 466.384 466.337 466.341 466.295 466.378 460.937 462.849 466.385 466.385 466.385 466.385 466.385 459.515 459.516 466.385 466.379 466.309 465.78 463.641 463.636 465.781 466.308 466.379 466.385 466.385 467.378 466.385 466.385 466.385 466.382 466.335 466.376 466.276 465.949 464.194 465.615 460.209 463.305 
        </DataArray>
        <DataArray type="Float32" Name="F1_Mass fraction_SG_co2gas_mod.xml" format="ascii">
1 1 1 1 1 1 1 1 1 1 1 1 1 1 1 1 1 1 1 1 1 1 1 1 1 1 1 1 1 1 1 1 1 1 1 1 1 1 1 1 1 1 1 1 1 1 1 1 1 1 1 1 1 1 1 1 1 1 1 1 1 1 1 1 1 
        </DataArray>
        <DataArray type="Float32" Name="Density_Mixture" format="ascii">
194.145 204.277 271.511 265.001 460.807 462.776 350.385 359.301 514.7 515.555 387.656 387.646 601.078 592.058 122.05 132.785 498.316 494.372 457.656 454.27 443.113 466.972 108.211 105.464 453.067 452.434 106.139 106.133 105.955 105.97 105.792 106.11 372.448 368.811 106.138 106.138 106.138 106.138 106.138 81.0687 81.0691 106.137 106.115 105.847 103.848 95.9072 95.9065 103.853 105.846 106.115 106.137 106.138 76.0698 106.138 106.137 106.136 106.125 105.948 106.102 105.722 104.488 97.9991 103.153 84.0385 93.8493 
        </DataArray>
        <DataArray type="Float32" Name="Pressure_Mixture" format="ascii">
1.285e+07 1.3646e+07 1.85917e+07 1.80322e+07 2.33019e+07 2.34308e+07 2.13717e+07 2.19367e+07 2.62144e+07 2.62715e+07 1.88731e+07 1.88726e+07 3.07904e+07 3.02854e+07 7.43507e+06 8.22561e+06 2.67546e+07 2.64219e+07 2.61925e+07 2.54311e+07 2.45804e+07 2.69041e+07 6.4201e+06 6.22374e+06 2.41107e+07 2.40718e+07 6.27198e+06 6.27155e+06 6.25877e+06 6.25989e+06 6.24715e+06 6.2699e+06 2.39382e+07 2.37978e+07 6.27189e+06 6.27187e+06 6.27186e+06 6.27186e+06 6.27186e+06 4.50068e+06 4.50071e+06 6.27178e+06 6.27026e+06 6.25106e+06 6.10834e+06 5.54386e+06 5.54374e+06 6.10871e+06 6.25102e+06 6.27025e+06 6.27178e+06 6.27186e+06 4.25502e+06 6.27185e+06 6.27182e+06 6.27172e+06 6.27092e+06 6.25829e+06 6.2693e+06 6.24214e+06 6.15402e+06 5.69194e+06 6.05905e+06 4.70644e+06 5.40133e+06 
        </DataArray>
        <DataArray type="Float32" Name="Velocity_Mixture" NumberOfComponents="3" format="ascii">
179.32 -24.2671 0 163.439 47.8383 0 241.154 -37.7744 0 244.245 40.8575 0 321.415 29.4828 0 321.127 -31.2106 0 289.689 -16.0482 0 291.576 26.6606 0 303.573 50.7799 0 303.733 -51.4715 0 343.79 0.0584399 0 343.794 -0.0555149 0 272.157 -42.7885 0 273.561 46.0307 0 30.7079 6.31693 0 64.1366 -18.9295 0 293.088 -71.3385 0 297.296 76.7047 0 295.201 -71.9315 0 290.32 45.4084 0 298.51 -39.0843 0 289.542 86.0958 0 2.9276 -1.30343 0 -1.39349 0.480232 0 305.706 -17.2215 0 305.011 16.5468 0 0.00433837 -0.000678942 0 -0.000311261 0.0051239 0 -0.421957 -0.0421522 0 -0.297693 0.174216 0 -0.699536 0.786161 0 -0.052169 0.0650292 0 283.097 86.7825 0 285.24 -71.5697 0 0.000823102 0.000272755 0 0.000197827 -5.57866e-05 0 0 -0.000104789 0 0 -1.30977e-05 0 0 1.42782e-05 0 35.8006 -0.586398 0 35.8049 0.588219 0 0.00050946 -0.000355273 0 0.0117303 -0.00573624 0 0.167105 -0.0548555 0 1.51926 -0.281964 0 8.88125 -0.678069 0 8.87304 0.6658 0 1.53961 0.271958 0 0.174031 0.0526741 0 0.0124193 0.00554036 0 0.000556116 0.000348653 0 0 0 0 72.6297 0.00235286 0 0.000276223 0 0 0.000459899 4.53974e-05 0 0.00865386 -0.000224765 0 0.0125666 0.00108538 0 0.211806 0.0130334 0 0.160016 -0.00379292 0 1.8431 -0.0367245 0 2.25936 0.0642463 0 14.8384 0.0449241 0 12.4364 -0.0949491 0 57.4027 -0.0019719 0 44.8216 -0.0495386 0 
        </DataArray>
        <DataArray type="Float32" Name="gradRho" format="ascii">
32.55 31.533 51.1801 48.9116 32.534 32.563 53.2606 56.7343 39.8883 41.1597 50.8053 52.1779 20.1912 18.2635 26.2144 25.9405 14.256 12.3209 48.9614 34.0194 36.6359 47.4577 8.8653 5.50512 6.5348 2.27104 0.0120953 0.0587261 0.0884938 0.216666 0.737513 0.0776053 49.7177 46.059 0.000552604 0.00073516 0.000248403 7.15306e-06 5.8246e-06 0.776446 0.776592 0.000134411 0.00196036 0.0174 0.0973256 0.299277 0.299288 0.0977595 0.0172996 0.00192246 0.000130041 5.76848e-06 0.720735 0.000178738 0.000226206 0.00396305 0.00477834 0.0636523 0.0551812 0.443719 0.493043 2.00481 1.87081 3.71922 3.63157 
        </DataArray>
      </CellData>
    </Piece>
  </UnstructuredGrid>
</VTKFile>
