<?xml version="1.0"?>
<VTKFile type="UnstructuredGrid" version="0.1" byte_order="LittleEndian">
  <UnstructuredGrid>
    <Piece NumberOfPoints="50" NumberOfCells="65">
      <Points>
        <DataArray type="Float32" NumberOfComponents="3" format="ascii">
          0 5 0 0 -5 0 15 0.2 0 15 -0.2 0 35 0.2 0 35 -0.2 0 2.14286 4.31429 0 4.28571 3.62857 0 6.42857 2.94286 0 8.57143 2.25714 0 10.7143 1.57143 0 12.8571 0.885714 0 17.8571 0.2 0 20.7143 0.2 0 23.5714 0.2 0 26.4286 0.2 0 29.2857 0.2 0 32.1429 0.2 0 32.1429 -0.2 0 29.2857 -0.2 0 26.4286 -0.2 0 23.5714 -0.2 0 20.7143 -0.2 0 17.8571 -0.2 0 12.8571 -0.885714 0 10.7143 -1.57143 0 8.57143 -2.25714 0 6.42857 -2.94286 0 4.28571 -3.62857 0 2.14286 -4.31429 0 0 -2.5 0 0 -6.16307e-12 0 0 2.5 0 3.95974 -5.7158e-13 0 13.9286 -3.66374e-15 0 6.61813 2.81487e-12 0 2.86365 2.0434 0 2.86365 -2.0434 0 9.43036 1.987e-12 0 11.3926 2.79508e-14 0 4.83116 1.72297 0 4.83116 -1.72297 0 1.90629 -3.21031e-12 0 33.5714 0 0 16.4286 -1.80625e-18 0 25 6.93889e-18 0 19.2857 -6.93889e-18 0 30.7143 0 0 22.1429 0 0 27.8571 0 0 
        </DataArray>
      </Points>
      <Cells>
        <DataArray type="Int32" Name="connectivity" format="ascii">
          8 9 35 26 27 35 8 35 40 27 41 35 30 42 37 32 36 42 33 40 35 33 35 41 29 30 37 6 36 32 30 31 42 31 32 42 0 6 32 30 29 1 26 35 38 9 38 35 6 7 36 28 29 37 7 40 36 33 41 37 33 36 40 28 37 41 9 10 38 25 26 38 33 42 36 33 37 42 11 34 24 24 25 39 10 11 39 25 38 39 10 39 38 11 24 39 27 28 41 7 8 40 2 34 11 3 24 34 2 3 34 2 44 12 3 23 44 4 17 43 5 43 18 12 46 13 13 48 14 14 45 15 15 49 16 16 47 17 18 47 19 19 49 20 20 45 21 21 48 22 22 46 23 2 3 44 4 43 5 12 44 23 12 23 46 13 46 22 13 22 48 14 21 45 14 48 21 15 45 20 15 20 49 16 19 47 16 49 19 17 18 43 17 47 18 
        </DataArray>
        <DataArray type="Int32" Name="offsets" format="ascii">
          3 6 9 12 15 18 21 24 27 30 33 36 39 42 45 48 51 54 57 60 63 66 69 72 75 78 81 84 87 90 93 96 99 102 105 108 111 114 117 120 123 126 129 132 135 138 141 144 147 150 153 156 159 162 165 168 171 174 177 180 183 186 189 192 195 
        </DataArray>
        <DataArray type="UInt8" Name="types" format="ascii">
          5 5 5 5 5 5 5 5 5 5 5 5 5 5 5 5 5 5 5 5 5 5 5 5 5 5 5 5 5 5 5 5 5 5 5 5 5 5 5 5 5 5 5 5 5 5 5 5 5 5 5 5 5 5 5 5 5 5 5 5 5 5 5 5 5 
        </DataArray>
      </Cells>
      <CellData>
        <DataArray type="Float32" Name="F0_Alpha_SG_co2liq_mod.xml" format="ascii">
1.72682e-10 1.72682e-10 1.72682e-10 1.72682e-10 1.7003e-10 1.70037e-10 1.72682e-10 1.72682e-10 1.70637e-10 1.7068e-10 1.68638e-10 1.68637e-10 1.67993e-10 1.6804e-10 1.72682e-10 1.72682e-10 1.72548e-10 1.72497e-10 1.7268e-10 1.72673e-10 1.72673e-10 1.72699e-10 1.72682e-10 1.72682e-10 1.72542e-10 1.72538e-10 1.72682e-10 1.72682e-10 1.72682e-10 1.72682e-10 1.72682e-10 1.72682e-10 1.72683e-10 1.72683e-10 1.72682e-10 1.72682e-10 1.72682e-10 1.72682e-10 1.72682e-10 1.72873e-10 1.72873e-10 1.72682e-10 1.72682e-10 1.72682e-10 1.72682e-10 1.72685e-10 1.72686e-10 1.72682e-10 1.72682e-10 1.72682e-10 1.72682e-10 1.72682e-10 1.72985e-10 1.72682e-10 1.72682e-10 1.72682e-10 1.72682e-10 1.72682e-10 1.72682e-10 1.72682e-10 1.72682e-10 1.72683e-10 1.72682e-10 1.72783e-10 1.72691e-10 
        </DataArray>
        <DataArray type="Float32" Name="F0_Density_SG_co2liq_mod.xml" format="ascii">
5897.13 5897.13 5897.13 5897.13 6073.89 6073.52 5897.13 5897.13 6033.94 6030.87 6228.71 6228.79 6261.51 6258.27 5897.13 5897.13 5905.35 5908.5 5897.25 5897.72 5897.71 5896.07 5897.13 5897.13 5905.51 5905.73 5897.13 5897.13 5897.13 5897.13 5897.13 5897.13 5897.05 5897.08 5897.13 5897.13 5897.13 5897.13 5897.13 5884.79 5884.79 5897.13 5897.13 5897.13 5897.13 5896.92 5896.9 5897.13 5897.13 5897.13 5897.13 5897.13 5875.35 5897.13 5897.13 5897.13 5897.13 5897.13 5897.13 5897.13 5897.13 5897.07 5897.13 5890.65 5896.54 
        </DataArray>
        <DataArray type="Float32" Name="F0_Temperature_SG_co2liq_mod.xml" format="ascii">
41.7807 41.7807 41.7807 41.7807 42.1238 42.1234 41.7807 41.7807 42.0696 42.065 42.275 42.275 42.2987 42.2965 41.7807 41.7807 41.8057 41.8149 41.7811 41.7825 41.7825 41.7773 41.7807 41.7807 41.8062 41.8068 41.7807 41.7807 41.7807 41.7807 41.7807 41.7807 41.7804 41.7805 41.7807 41.7807 41.7807 41.7807 41.7807 41.7398 41.7398 41.7807 41.7807 41.7807 41.7807 41.78 41.78 41.7807 41.7807 41.7807 41.7807 41.7807 41.7053 41.7807 41.7807 41.7807 41.7807 41.7807 41.7807 41.7807 41.7807 41.7805 41.7807 41.7597 41.7788 
        </DataArray>
        <DataArray type="Float32" Name="F0_Mass fraction_SG_co2liq_mod.xml" format="ascii">
9.5944e-09 9.5944e-09 9.59457e-09 9.59433e-09 5.36278e-09 5.36673e-09 9.59454e-09 9.5945e-09 5.93327e-09 5.98561e-09 3.51469e-09 3.51428e-09 3.40548e-09 3.4221e-09 9.5944e-09 9.5944e-09 9.27488e-09 9.15659e-09 9.58936e-09 9.5696e-09 9.57004e-09 9.63922e-09 9.5944e-09 9.5944e-09 9.27922e-09 9.27128e-09 9.5944e-09 9.5944e-09 9.5944e-09 9.5944e-09 9.5944e-09 9.5944e-09 9.59781e-09 9.59641e-09 9.5944e-09 9.5944e-09 9.5944e-09 9.5944e-09 9.5944e-09 1.0155e-08 1.0155e-08 9.5944e-09 9.5944e-09 9.5944e-09 9.59443e-09 9.60329e-09 9.60388e-09 9.59444e-09 9.5944e-09 9.5944e-09 9.5944e-09 9.5944e-09 1.07558e-08 9.5944e-09 9.5944e-09 9.5944e-09 9.5944e-09 9.5944e-09 9.5944e-09 9.5944e-09 9.59441e-09 9.59696e-09 9.59454e-09 9.87775e-09 9.61949e-09 
        </DataArray>
        <DataArray type="Float32" Name="F1_Alpha_SG_co2gas_mod.xml" format="ascii">
1 1 1 1 1 1 1 1 1 1 1 1 1 1 1 1 1 1 1 1 1 1 1 1 1 1 1 1 1 1 1 1 1 1 1 1 1 1 1 1 1 1 1 1 1 1 1 1 1 1 1 1 1 1 1 1 1 1 1 1 1 1 1 1 1 
        </DataArray>
        <DataArray type="Float32" Name="F1_Density_SG_co2gas_mod.xml" format="ascii">
106.138 106.138 106.136 106.139 192.576 192.43 106.136 106.137 173.532 171.971 298.859 298.896 308.882 307.308 106.138 106.138 109.862 111.308 106.195 106.418 106.413 105.635 106.138 106.138 109.809 109.905 106.138 106.138 106.138 106.138 106.138 106.138 106.099 106.115 106.138 106.138 106.138 106.138 106.138 100.179 100.179 106.138 106.138 106.138 106.137 106.038 106.031 106.137 106.138 106.138 106.138 106.138 94.4926 106.138 106.138 106.138 106.138 106.138 106.138 106.138 106.138 106.109 106.136 103.04 105.856 
        </DataArray>
        <DataArray type="Float32" Name="F1_Temperature_SG_co2gas_mod.xml" format="ascii">
466.385 466.385 466.385 466.386 447.887 447.853 466.385 466.385 452.08 452.657 385.523 385.527 392.304 392.407 466.385 466.385 467.936 468.34 466.402 466.463 466.462 466.256 466.385 466.385 468.494 468.54 466.385 466.385 466.385 466.385 466.385 466.385 466.375 466.379 466.385 466.385 466.385 466.385 466.385 464.827 464.827 466.385 466.385 466.385 466.385 466.359 466.357 466.385 466.385 466.385 466.385 466.385 468.303 466.385 466.385 466.385 466.385 466.385 466.385 466.385 466.385 466.378 466.385 465.567 466.312 
        </DataArray>
        <DataArray type="Float32" Name="F1_Mass fraction_SG_co2gas_mod.xml" format="ascii">
1 1 1 1 1 1 1 1 1 1 1 1 1 1 1 1 1 1 1 1 1 1 1 1 1 1 1 1 1 1 1 1 1 1 1 1 1 1 1 1 1 1 1 1 1 1 1 1 1 1 1 1 1 1 1 1 1 1 1 1 1 1 1 1 1 
        </DataArray>
        <DataArray type="Float32" Name="Density_Mixture" format="ascii">
106.138 106.138 106.136 106.139 192.576 192.43 106.136 106.137 173.532 171.971 298.859 298.896 308.882 307.308 106.138 106.138 109.862 111.308 106.195 106.418 106.413 105.635 106.138 106.138 109.809 109.905 106.138 106.138 106.138 106.138 106.138 106.138 106.099 106.115 106.138 106.138 106.138 106.138 106.138 100.179 100.179 106.138 106.138 106.138 106.137 106.038 106.031 106.137 106.138 106.138 106.138 106.138 94.4926 106.138 106.138 106.138 106.138 106.138 106.138 106.138 106.138 106.109 106.136 103.04 105.856 
        </DataArray>
        <DataArray type="Float32" Name="Pressure_Mixture" format="ascii">
6.27186e+06 6.27186e+06 6.27172e+06 6.27191e+06 1.15861e+07 1.15757e+07 6.27175e+06 6.27178e+06 1.04579e+07 1.03702e+07 1.57744e+07 1.57766e+07 1.6636e+07 1.65513e+07 6.27186e+06 6.27186e+06 6.54764e+06 6.65198e+06 6.27594e+06 6.29195e+06 6.29158e+06 6.23601e+06 6.27186e+06 6.27186e+06 6.55295e+06 6.56019e+06 6.27186e+06 6.27186e+06 6.27186e+06 6.27186e+06 6.27186e+06 6.27186e+06 6.26911e+06 6.27024e+06 6.27186e+06 6.27186e+06 6.27186e+06 6.27186e+06 6.27186e+06 5.84744e+06 5.84744e+06 6.27186e+06 6.27186e+06 6.27186e+06 6.27183e+06 6.26471e+06 6.26424e+06 6.27183e+06 6.27186e+06 6.27186e+06 6.27186e+06 6.27186e+06 5.51272e+06 6.27186e+06 6.27186e+06 6.27186e+06 6.27186e+06 6.27186e+06 6.27186e+06 6.27186e+06 6.27185e+06 6.2698e+06 6.27175e+06 6.05075e+06 6.25173e+06 
        </DataArray>
        <DataArray type="Float32" Name="Velocity_Mixture" NumberOfComponents="3" format="ascii">
-1.03426e-05 0 0 7.79274e-05 0 0 -0.00331407 0.00368463 0 0.0011203 0.00200419 0 168.409 -19.347 0 168.673 20.1327 0 -0.00326161 0.00183832 0 -0.00243864 -0.0012079 0 143.174 38.7947 0 141.878 -32.9821 0 303.366 1.17849 0 303.338 -1.19798 0 284.339 -25.6818 0 277.873 45.3752 0 0 0 0 0 0 0 9.62189 0.316898 0 9.36525 2.49245 0 0.124032 -0.0469842 0 0.670395 -0.338322 0 0.646116 0.348063 0 -0.97104 -0.959886 0 0 0 0 0 0 0 10.7865 -3.02218 0 11.0395 3.26039 0 0 0 0 0 0 0 0 0 0 0 0 0 0 0 0 0 0 0 -0.0673352 0.00406613 0 -0.0581115 -0.0105872 0 0 0 0 0 0 0 0 0 0 0 0 0 0 0 0 3.27578 -1.48308 0 3.27579 1.48308 0 0 0 0 0 0 0 0 0 0 0.000122403 -0.000356226 0 0.0390967 -0.0667301 0 0.0460173 0.0667997 0 0.000156107 0.000393665 0 0 0 0 0 0 0 0 0 0 0 0 0 26.0963 0 0 0 0 0 0 0 0 0 0 0 0 0 0 0 0 0 0 0 0 0 0 0 2.96231e-05 6.41653e-07 0 0.0177175 0.0039202 0 0.00554527 -0.000221918 0 2.25491 -3.20338e-05 0 1.13094 -0.0455714 0 
        </DataArray>
        <DataArray type="Float32" Name="gradRho" format="ascii">
0.000560687 0.000219083 0.00662107 0.0115673 57.6187 57.7686 0.106676 0.108114 50.9881 51.5303 73.8185 73.9388 32.3232 31.5833 1.00568e-05 2.13536e-06 21.222 21.6367 1.12083 1.38336 1.26157 1.43555 4.51301e-08 1.63527e-07 29.4018 29.462 0 0 0 2.92713e-09 1.7908e-10 0 0.16696 0.025756 0 0 0 0 0 0.953339 0.953341 0 4.51401e-10 4.81081e-07 0.000258281 0.0338146 0.0309978 0.000232574 4.26671e-07 4.51401e-10 0 0 0.819847 0 0 0 0 7.20092e-08 2.01967e-08 2.07907e-05 5.91645e-05 0.0170487 0.00965934 1.26056 1.00275 
        </DataArray>
      </CellData>
    </Piece>
  </UnstructuredGrid>
</VTKFile>
