<?xml version="1.0"?>
<VTKFile type="UnstructuredGrid" version="0.1" byte_order="LittleEndian">
  <UnstructuredGrid>
    <Piece NumberOfPoints="50" NumberOfCells="65">
      <Points>
        <DataArray type="Float32" NumberOfComponents="3" format="ascii">
          0 5 0 0 -5 0 15 0.2 0 15 -0.2 0 35 0.2 0 35 -0.2 0 2.14286 4.31429 0 4.28571 3.62857 0 6.42857 2.94286 0 8.57143 2.25714 0 10.7143 1.57143 0 12.8571 0.885714 0 17.8571 0.2 0 20.7143 0.2 0 23.5714 0.2 0 26.4286 0.2 0 29.2857 0.2 0 32.1429 0.2 0 32.1429 -0.2 0 29.2857 -0.2 0 26.4286 -0.2 0 23.5714 -0.2 0 20.7143 -0.2 0 17.8571 -0.2 0 12.8571 -0.885714 0 10.7143 -1.57143 0 8.57143 -2.25714 0 6.42857 -2.94286 0 4.28571 -3.62857 0 2.14286 -4.31429 0 0 -2.5 0 0 -6.16307e-12 0 0 2.5 0 3.95974 -5.7158e-13 0 13.9286 -3.66374e-15 0 6.61813 2.81487e-12 0 2.86365 2.0434 0 2.86365 -2.0434 0 9.43036 1.987e-12 0 11.3926 2.79508e-14 0 4.83116 1.72297 0 4.83116 -1.72297 0 1.90629 -3.21031e-12 0 33.5714 0 0 16.4286 -1.80625e-18 0 25 6.93889e-18 0 19.2857 -6.93889e-18 0 30.7143 0 0 22.1429 0 0 27.8571 0 0 
        </DataArray>
      </Points>
      <Cells>
        <DataArray type="Int32" Name="connectivity" format="ascii">
          8 9 35 26 27 35 8 35 40 27 41 35 30 42 37 32 36 42 33 40 35 33 35 41 29 30 37 6 36 32 30 31 42 31 32 42 0 6 32 30 29 1 26 35 38 9 38 35 6 7 36 28 29 37 7 40 36 33 41 37 33 36 40 28 37 41 9 10 38 25 26 38 33 42 36 33 37 42 11 34 24 24 25 39 10 11 39 25 38 39 10 39 38 11 24 39 27 28 41 7 8 40 2 34 11 3 24 34 2 3 34 2 44 12 3 23 44 4 17 43 5 43 18 12 46 13 13 48 14 14 45 15 15 49 16 16 47 17 18 47 19 19 49 20 20 45 21 21 48 22 22 46 23 2 3 44 4 43 5 12 44 23 12 23 46 13 46 22 13 22 48 14 21 45 14 48 21 15 45 20 15 20 49 16 19 47 16 49 19 17 18 43 17 47 18 
        </DataArray>
        <DataArray type="Int32" Name="offsets" format="ascii">
          3 6 9 12 15 18 21 24 27 30 33 36 39 42 45 48 51 54 57 60 63 66 69 72 75 78 81 84 87 90 93 96 99 102 105 108 111 114 117 120 123 126 129 132 135 138 141 144 147 150 153 156 159 162 165 168 171 174 177 180 183 186 189 192 195 
        </DataArray>
        <DataArray type="UInt8" Name="types" format="ascii">
          5 5 5 5 5 5 5 5 5 5 5 5 5 5 5 5 5 5 5 5 5 5 5 5 5 5 5 5 5 5 5 5 5 5 5 5 5 5 5 5 5 5 5 5 5 5 5 5 5 5 5 5 5 5 5 5 5 5 5 5 5 5 5 5 5 
        </DataArray>
      </Cells>
      <CellData>
        <DataArray type="Float32" Name="F0_Alpha_SG_co2liq_mod.xml" format="ascii">
1.72427e-10 1.72478e-10 1.71425e-10 1.71787e-10 1.65214e-10 1.65136e-10 1.68575e-10 1.68378e-10 1.64095e-10 1.63937e-10 1.67752e-10 1.67753e-10 1.62438e-10 1.62738e-10 1.72681e-10 1.72649e-10 1.63375e-10 1.63031e-10 1.6411e-10 1.64943e-10 1.65209e-10 1.63702e-10 1.72682e-10 1.72682e-10 1.65105e-10 1.65146e-10 1.72682e-10 1.72682e-10 1.72682e-10 1.72682e-10 1.72683e-10 1.72682e-10 1.68043e-10 1.68258e-10 1.72682e-10 1.72682e-10 1.72682e-10 1.72682e-10 1.72682e-10 1.73292e-10 1.73292e-10 1.72682e-10 1.72682e-10 1.72684e-10 1.72706e-10 1.72866e-10 1.72866e-10 1.72706e-10 1.72684e-10 1.72682e-10 1.72682e-10 1.72682e-10 1.73331e-10 1.72682e-10 1.72682e-10 1.72682e-10 1.72682e-10 1.72683e-10 1.72682e-10 1.72685e-10 1.72698e-10 1.72819e-10 1.72717e-10 1.73209e-10 1.72914e-10 
        </DataArray>
        <DataArray type="Float32" Name="F0_Density_SG_co2liq_mod.xml" format="ascii">
5912.99 5909.88 5971.14 5949.8 6483.37 6488.28 6137.78 6149.08 6558.51 6567.06 6346.19 6346.16 6696.47 6676.4 5897.21 5899.24 6529.96 6553.1 6417.33 6396.91 6381.47 6439.95 5897.11 5897.13 6435.2 6432.64 5897.13 5897.13 5897.12 5897.12 5897.06 5897.13 6157.31 6144.15 5897.13 5897.13 5897.13 5897.13 5897.13 5855.58 5855.58 5897.13 5897.13 5897.03 5895.57 5885.2 5885.22 5895.57 5897.03 5897.13 5897.13 5897.13 5848.79 5897.13 5897.13 5897.13 5897.13 5897.07 5897.12 5896.96 5896.12 5888.29 5894.89 5861.68 5882.01 
        </DataArray>
        <DataArray type="Float32" Name="F0_Temperature_SG_co2liq_mod.xml" format="ascii">
41.8276 41.8188 41.9631 41.9187 42.4146 42.4165 42.1956 42.2067 42.4412 42.444 42.351 42.351 42.4789 42.4742 41.7809 41.7873 42.4317 42.4395 42.3868 42.3772 42.3696 42.3968 41.7806 41.7807 42.3948 42.3936 41.7807 41.7807 41.7806 41.7807 41.7804 41.7807 42.2146 42.2019 41.7807 41.7807 41.7807 41.7807 41.7807 41.621 41.621 41.7807 41.7807 41.7803 41.7757 41.7412 41.7413 41.7757 41.7803 41.7807 41.7807 41.7807 41.5869 41.7807 41.7807 41.7807 41.7807 41.7805 41.7806 41.7801 41.7775 41.7518 41.7736 41.6491 41.73 
        </DataArray>
        <DataArray type="Float32" Name="F0_Mass fraction_SG_co2liq_mod.xml" format="ascii">
8.98874e-09 9.09848e-09 7.43464e-09 7.94635e-09 2.48749e-09 2.47633e-09 5.03024e-09 4.92886e-09 2.31709e-09 2.30457e-09 2.76502e-09 2.76509e-09 2.01333e-09 2.04406e-09 9.59113e-09 9.50675e-09 2.60797e-09 2.54801e-09 3.25192e-09 3.15717e-09 3.2089e-09 3.18214e-09 9.5951e-09 9.59451e-09 2.80736e-09 2.81493e-09 9.5944e-09 9.5944e-09 9.59475e-09 9.59465e-09 9.59745e-09 9.59442e-09 5.01209e-09 5.14587e-09 9.5944e-09 9.5944e-09 9.5944e-09 9.5944e-09 9.5944e-09 1.19436e-08 1.19434e-08 9.5944e-09 9.59456e-09 9.59878e-09 9.66055e-09 1.01343e-08 1.01334e-08 9.66066e-09 9.59882e-09 9.59457e-09 9.5944e-09 9.5944e-09 1.27528e-08 9.5944e-09 9.5944e-09 9.59441e-09 9.59448e-09 9.59683e-09 9.59472e-09 9.60175e-09 9.63694e-09 9.98654e-09 9.68985e-09 1.14953e-08 1.02959e-08 
        </DataArray>
        <DataArray type="Float32" Name="F1_Alpha_SG_co2gas_mod.xml" format="ascii">
1 1 1 1 1 1 1 1 1 1 1 1 1 1 1 1 1 1 1 1 1 1 1 1 1 1 1 1 1 1 1 1 1 1 1 1 1 1 1 1 1 1 1 1 1 1 1 1 1 1 1 1 1 1 1 1 1 1 1 1 1 1 1 1 1 
        </DataArray>
        <DataArray type="Float32" Name="F1_Density_SG_co2gas_mod.xml" format="ascii">
113.426 112.032 137.68 128.625 430.612 432.678 205.691 210.063 464.47 467.152 385.021 385.009 540.279 531.541 106.175 107.134 409.066 419.291 323.855 334.199 328.549 331.297 106.13 106.136 378.464 377.389 106.138 106.138 106.134 106.135 106.103 106.138 206.439 200.9 106.138 106.138 106.138 106.138 106.138 84.9598 84.961 106.138 106.136 106.088 105.398 100.387 100.396 105.397 106.088 106.136 106.138 106.138 79.4947 106.138 106.138 106.138 106.137 106.11 106.134 106.055 105.661 101.898 105.074 88.3227 98.785 
        </DataArray>
        <DataArray type="Float32" Name="F1_Temperature_SG_co2gas_mod.xml" format="ascii">
468.59 468.107 477.406 476.022 372.755 372.956 478.415 478.539 373.673 374.692 354.175 354.174 365.112 364.663 466.395 466.652 412.197 411.703 459.924 434.921 434.1 461.583 466.383 466.385 401.854 401.81 466.385 466.385 466.384 466.385 466.376 466.385 494.38 495.774 466.385 466.385 466.385 466.385 466.385 460.623 460.624 466.385 466.385 466.372 466.19 464.857 464.856 466.19 466.372 466.385 466.385 466.385 468.763 466.385 466.385 466.385 466.385 466.378 466.384 466.364 466.259 465.256 466.109 461.483 464.562 
        </DataArray>
        <DataArray type="Float32" Name="F1_Mass fraction_SG_co2gas_mod.xml" format="ascii">
1 1 1 1 1 1 1 1 1 1 1 1 1 1 1 1 1 1 1 1 1 1 1 1 1 1 1 1 1 1 1 1 1 1 1 1 1 1 1 1 1 1 1 1 1 1 1 1 1 1 1 1 1 1 1 1 1 1 1 1 1 1 1 1 1 
        </DataArray>
        <DataArray type="Float32" Name="Density_Mixture" format="ascii">
113.426 112.032 137.68 128.625 430.612 432.678 205.691 210.063 464.47 467.152 385.021 385.009 540.279 531.541 106.175 107.134 409.066 419.291 323.855 334.199 328.549 331.297 106.13 106.136 378.464 377.389 106.138 106.138 106.134 106.135 106.103 106.138 206.439 200.9 106.138 106.138 106.138 106.138 106.138 84.9598 84.961 106.138 106.136 106.088 105.398 100.387 100.396 105.397 106.088 106.136 106.138 106.138 79.4947 106.138 106.138 106.138 106.137 106.11 106.134 106.055 105.661 101.898 105.074 88.3227 98.785 
        </DataArray>
        <DataArray type="Float32" Name="Pressure_Mixture" format="ascii">
6.79953e+06 6.69727e+06 8.61845e+06 7.9676e+06 2.23241e+07 2.24481e+07 1.33434e+07 1.36497e+07 2.42108e+07 2.44245e+07 1.88323e+07 1.88317e+07 2.76381e+07 2.71422e+07 6.27449e+06 6.34318e+06 2.34959e+07 2.40754e+07 2.0652e+07 2.01316e+07 1.97373e+07 2.12264e+07 6.27129e+06 6.27177e+06 2.11059e+07 2.10409e+07 6.27186e+06 6.27186e+06 6.27158e+06 6.27166e+06 6.2694e+06 6.27184e+06 1.38718e+07 1.35163e+07 6.27186e+06 6.27186e+06 6.27186e+06 6.27186e+06 6.27186e+06 4.77284e+06 4.77293e+06 6.27185e+06 6.27173e+06 6.26833e+06 6.219e+06 5.86187e+06 5.86245e+06 6.21891e+06 6.2683e+06 6.27172e+06 6.27185e+06 6.27186e+06 4.5024e+06 6.27186e+06 6.27186e+06 6.27185e+06 6.27179e+06 6.2699e+06 6.2716e+06 6.26595e+06 6.23777e+06 5.9693e+06 6.1959e+06 5.00781e+06 5.74996e+06 
        </DataArray>
        <DataArray type="Float32" Name="Velocity_Mixture" NumberOfComponents="3" format="ascii">
19.9933 -0.738447 0 11.5246 2.76927 0 69.2571 -6.02871 0 52.7925 -8.89286 0 321.802 13.8328 0 322.316 -16.7271 0 191.629 -7.67492 0 197.071 9.22976 0 309.428 44.6694 0 309.218 -44.574 0 343.459 0.0942924 0 343.462 -0.091991 0 289.519 -42.8674 0 291.059 45.5518 0 0.0136692 -0.485333 0 2.28168 -1.19333 0 287.294 -61.3983 0 289.767 76.2332 0 269.211 -50.5576 0 270.877 21.2763 0 274.224 -12.7427 0 261.509 75.0778 0 -0.192137 -0.163224 0 0.00504059 -0.00684604 0 293.165 -16.2457 0 293.144 17.8205 0 0 0 0 -6.36641e-05 5.84651e-05 0 -0.00911963 -0.00255538 0 -0.000453858 0.0108932 0 -0.0696698 0.0574882 0 -0.000297075 0.000448211 0 158.74 53.1021 0 181.9 -26.2133 0 0 0 0 0 0 0 0 0 0 0 0 0 0 0 0 22.9258 -0.825144 0 22.9285 0.829665 0 0 -1.8309e-05 0 0.000848556 -0.000705411 0 0.0249658 -0.0141328 0 0.416355 -0.143337 0 3.93711 -0.625254 0 3.96848 0.613945 0 0.434702 0.137527 0 0.0266286 0.0136626 0 0.000930832 0.000692195 0 0 2.01898e-05 0 0 0 0 64.0414 0.00548283 0 0 0 0 0 0 0 0.000373518 0 0 0.000674275 8.64584e-05 0 0.0243749 0.00249795 0 0.0157786 -0.000455621 0 0.371373 -0.0093625 0 0.505948 0.0351206 0 5.93176 0.146177 0 4.76734 -0.0979777 0 38.2909 -0.00391995 0 30.1058 -0.15095 0 
        </DataArray>
        <DataArray type="Float32" Name="gradRho" format="ascii">
8.01275 5.73862 26.4282 27.643 21.342 21.8068 61.29 64.6016 37.5575 42.9136 31.6647 33.1051 17.2647 15.8347 1.4667 2.18763 36.6986 33.2754 73.9711 55.9995 57.638 75.6243 0.345975 0.0132265 34.6073 32.0488 8.22432e-05 0.00101201 0.0119138 0.0155198 0.0101521 0.00164551 54.5814 51.6273 2.13399e-06 2.39873e-06 3.37e-07 1.70759e-07 1.41939e-07 0.835396 0.835797 1.05181e-05 0.000283203 0.00495824 0.0451999 0.225648 0.226165 0.0449866 0.00484432 0.000270916 8.61039e-06 6.15056e-08 0.788006 4.88941e-06 7.53362e-06 0.000281681 0.00037161 0.0104467 0.00848425 0.14116 0.163286 1.25624 1.14256 3.985 3.81626 
        </DataArray>
      </CellData>
    </Piece>
  </UnstructuredGrid>
</VTKFile>
