<?xml version="1.0"?>
<VTKFile type="UnstructuredGrid" version="0.1" byte_order="LittleEndian">
  <UnstructuredGrid>
    <Piece NumberOfPoints="50" NumberOfCells="65">
      <Points>
        <DataArray type="Float32" NumberOfComponents="3" format="ascii">
          0 5 0 0 -5 0 15 0.2 0 15 -0.2 0 35 0.2 0 35 -0.2 0 2.14286 4.31429 0 4.28571 3.62857 0 6.42857 2.94286 0 8.57143 2.25714 0 10.7143 1.57143 0 12.8571 0.885714 0 17.8571 0.2 0 20.7143 0.2 0 23.5714 0.2 0 26.4286 0.2 0 29.2857 0.2 0 32.1429 0.2 0 32.1429 -0.2 0 29.2857 -0.2 0 26.4286 -0.2 0 23.5714 -0.2 0 20.7143 -0.2 0 17.8571 -0.2 0 12.8571 -0.885714 0 10.7143 -1.57143 0 8.57143 -2.25714 0 6.42857 -2.94286 0 4.28571 -3.62857 0 2.14286 -4.31429 0 0 -2.5 0 0 -6.16307e-12 0 0 2.5 0 3.95974 -5.7158e-13 0 13.9286 -3.66374e-15 0 6.61813 2.81487e-12 0 2.86365 2.0434 0 2.86365 -2.0434 0 9.43036 1.987e-12 0 11.3926 2.79508e-14 0 4.83116 1.72297 0 4.83116 -1.72297 0 1.90629 -3.21031e-12 0 33.5714 0 0 16.4286 -1.80625e-18 0 25 6.93889e-18 0 19.2857 -6.93889e-18 0 30.7143 0 0 22.1429 0 0 27.8571 0 0 
        </DataArray>
      </Points>
      <Cells>
        <DataArray type="Int32" Name="connectivity" format="ascii">
          8 9 35 26 27 35 8 35 40 27 41 35 30 42 37 32 36 42 33 40 35 33 35 41 29 30 37 6 36 32 30 31 42 31 32 42 0 6 32 30 29 1 26 35 38 9 38 35 6 7 36 28 29 37 7 40 36 33 41 37 33 36 40 28 37 41 9 10 38 25 26 38 33 42 36 33 37 42 11 34 24 24 25 39 10 11 39 25 38 39 10 39 38 11 24 39 27 28 41 7 8 40 2 34 11 3 24 34 2 3 34 2 44 12 3 23 44 4 17 43 5 43 18 12 46 13 13 48 14 14 45 15 15 49 16 16 47 17 18 47 19 19 49 20 20 45 21 21 48 22 22 46 23 2 3 44 4 43 5 12 44 23 12 23 46 13 46 22 13 22 48 14 21 45 14 48 21 15 45 20 15 20 49 16 19 47 16 49 19 17 18 43 17 47 18 
        </DataArray>
        <DataArray type="Int32" Name="offsets" format="ascii">
          3 6 9 12 15 18 21 24 27 30 33 36 39 42 45 48 51 54 57 60 63 66 69 72 75 78 81 84 87 90 93 96 99 102 105 108 111 114 117 120 123 126 129 132 135 138 141 144 147 150 153 156 159 162 165 168 171 174 177 180 183 186 189 192 195 
        </DataArray>
        <DataArray type="UInt8" Name="types" format="ascii">
          5 5 5 5 5 5 5 5 5 5 5 5 5 5 5 5 5 5 5 5 5 5 5 5 5 5 5 5 5 5 5 5 5 5 5 5 5 5 5 5 5 5 5 5 5 5 5 5 5 5 5 5 5 5 5 5 5 5 5 5 5 5 5 5 5 
        </DataArray>
      </Cells>
      <CellData>
        <DataArray type="Float32" Name="F0_Alpha_SG_co2liq_mod.xml" format="ascii">
1.72479e-10 1.72525e-10 1.7164e-10 1.71966e-10 1.65229e-10 1.65158e-10 1.68908e-10 1.68722e-10 1.64158e-10 1.63994e-10 1.6775e-10 1.6775e-10 1.62554e-10 1.62853e-10 1.72682e-10 1.72656e-10 1.6351e-10 1.631e-10 1.64403e-10 1.65173e-10 1.65404e-10 1.64031e-10 1.72682e-10 1.72682e-10 1.65201e-10 1.65241e-10 1.72682e-10 1.72682e-10 1.72682e-10 1.72682e-10 1.72683e-10 1.72682e-10 1.68619e-10 1.6876e-10 1.72682e-10 1.72682e-10 1.72682e-10 1.72682e-10 1.72682e-10 1.73285e-10 1.73285e-10 1.72682e-10 1.72682e-10 1.72683e-10 1.72704e-10 1.72858e-10 1.72858e-10 1.72704e-10 1.72683e-10 1.72682e-10 1.72682e-10 1.72682e-10 1.73325e-10 1.72682e-10 1.72682e-10 1.72682e-10 1.72682e-10 1.72683e-10 1.72682e-10 1.72684e-10 1.72696e-10 1.72812e-10 1.72714e-10 1.73201e-10 1.72905e-10 
        </DataArray>
        <DataArray type="Float32" Name="F0_Density_SG_co2liq_mod.xml" format="ascii">
5909.8 5906.99 5959.06 5939.57 6480.71 6485.16 6117.81 6128.43 6551.97 6561 6345.96 6345.94 6687.91 6667.9 5897.16 5898.76 6516.98 6543.83 6395.45 6378.88 6365.4 6416.18 5897.12 5897.12 6425.66 6423.13 5897.13 5897.13 5897.12 5897.13 5897.08 5897.13 6125.88 6116.75 5897.13 5897.13 5897.13 5897.13 5897.13 5856.11 5856.11 5897.13 5897.13 5897.04 5895.7 5885.73 5885.75 5895.7 5897.04 5897.13 5897.13 5897.13 5849.27 5897.13 5897.13 5897.13 5897.13 5897.08 5897.12 5896.98 5896.22 5888.73 5895.06 5862.25 5882.61 
        </DataArray>
        <DataArray type="Float32" Name="F0_Temperature_SG_co2liq_mod.xml" format="ascii">
41.8186 41.8105 41.9386 41.8955 42.4136 42.4153 42.1748 42.186 42.4391 42.442 42.3509 42.3509 42.4769 42.4721 41.7808 41.7858 42.4271 42.4364 42.3764 42.3682 42.3613 42.3862 41.7806 41.7807 42.3905 42.3894 41.7807 41.7807 41.7807 41.7807 41.7805 41.7807 42.1834 42.1737 41.7807 41.7807 41.7807 41.7807 41.7807 41.6235 41.6235 41.7807 41.7807 41.7804 41.7762 41.7431 41.7431 41.7762 41.7804 41.7807 41.7807 41.7807 41.5894 41.7807 41.7807 41.7807 41.7807 41.7805 41.7807 41.7802 41.7778 41.7533 41.7741 41.6516 41.7321 
        </DataArray>
        <DataArray type="Float32" Name="F0_Mass fraction_SG_co2liq_mod.xml" format="ascii">
9.10155e-09 9.20433e-09 7.6957e-09 8.20561e-09 2.49891e-09 2.48875e-09 5.23385e-09 5.13072e-09 2.33679e-09 2.3229e-09 2.76713e-09 2.76721e-09 2.02789e-09 2.059e-09 9.59334e-09 9.52669e-09 2.65637e-09 2.5867e-09 3.36114e-09 3.24585e-09 3.29432e-09 3.29132e-09 9.59499e-09 9.59466e-09 2.85025e-09 2.85801e-09 9.5944e-09 9.5944e-09 9.59465e-09 9.59456e-09 9.59666e-09 9.59441e-09 5.2876e-09 5.39972e-09 9.5944e-09 9.5944e-09 9.5944e-09 9.5944e-09 9.5944e-09 1.19032e-08 1.19031e-08 9.5944e-09 9.59454e-09 9.59822e-09 9.65492e-09 1.01086e-08 1.01074e-08 9.65502e-09 9.59825e-09 9.59454e-09 9.5944e-09 9.5944e-09 1.27098e-08 9.5944e-09 9.5944e-09 9.59441e-09 9.59446e-09 9.59649e-09 9.59467e-09 9.60089e-09 9.63293e-09 9.96587e-09 9.68254e-09 1.14562e-08 1.02655e-08 
        </DataArray>
        <DataArray type="Float32" Name="F1_Alpha_SG_co2gas_mod.xml" format="ascii">
1 1 1 1 1 1 1 1 1 1 1 1 1 1 1 1 1 1 1 1 1 1 1 1 1 1 1 1 1 1 1 1 1 1 1 1 1 1 1 1 1 1 1 1 1 1 1 1 1 1 1 1 1 1 1 1 1 1 1 1 1 1 1 1 1 
        </DataArray>
        <DataArray type="Float32" Name="F1_Density_SG_co2gas_mod.xml" format="ascii">
111.994 110.72 132.907 124.476 428.507 430.369 197.436 201.532 460.272 463.196 384.707 384.695 536.096 527.384 106.15 106.906 401.146 412.61 312.819 324.604 319.599 319.766 106.131 106.135 372.433 371.365 106.138 106.138 106.135 106.136 106.112 106.138 195.351 191.169 106.138 106.138 106.138 106.138 106.138 85.2518 85.2532 106.138 106.136 106.095 105.461 100.647 100.659 105.459 106.094 106.136 106.138 106.138 79.7674 106.138 106.138 106.138 106.137 106.114 106.135 106.065 105.706 102.113 105.154 88.629 99.0823 
        </DataArray>
        <DataArray type="Float32" Name="F1_Temperature_SG_co2gas_mod.xml" format="ascii">
468.117 467.696 475.491 474.211 373.505 373.693 479.365 479.571 374.624 375.628 354.36 354.36 365.234 364.777 466.389 466.59 414.72 414.48 463.822 437.962 437.351 465.17 466.384 466.385 403.865 403.83 466.385 466.385 466.385 466.385 466.379 466.385 492.276 494.026 466.385 466.385 466.385 466.385 466.385 460.706 460.707 466.385 466.385 466.374 466.207 464.927 464.927 466.206 466.374 466.385 466.385 466.385 468.836 466.385 466.385 466.385 466.385 466.379 466.385 466.366 466.271 465.314 466.13 461.572 464.637 
        </DataArray>
        <DataArray type="Float32" Name="F1_Mass fraction_SG_co2gas_mod.xml" format="ascii">
1 1 1 1 1 1 1 1 1 1 1 1 1 1 1 1 1 1 1 1 1 1 1 1 1 1 1 1 1 1 1 1 1 1 1 1 1 1 1 1 1 1 1 1 1 1 1 1 1 1 1 1 1 1 1 1 1 1 1 1 1 1 1 1 1 
        </DataArray>
        <DataArray type="Float32" Name="Density_Mixture" format="ascii">
111.994 110.72 132.907 124.476 428.507 430.369 197.436 201.532 460.272 463.196 384.707 384.695 536.096 527.384 106.15 106.906 401.146 412.61 312.819 324.604 319.599 319.766 106.131 106.135 372.433 371.365 106.138 106.138 106.135 106.136 106.112 106.138 195.351 191.169 106.138 106.138 106.138 106.138 106.138 85.2518 85.2532 106.138 106.136 106.095 105.461 100.647 100.659 105.459 106.094 106.136 106.138 106.138 79.7674 106.138 106.138 106.138 106.137 106.114 106.135 106.065 105.706 102.113 105.154 88.629 99.0823 
        </DataArray>
        <DataArray type="Float32" Name="Pressure_Mixture" format="ascii">
6.69483e+06 6.60186e+06 8.25215e+06 7.64947e+06 2.22571e+07 2.23694e+07 1.27995e+07 1.30894e+07 2.40472e+07 2.42729e+07 1.88266e+07 1.88259e+07 2.74267e+07 2.69318e+07 6.27271e+06 6.32682e+06 2.31701e+07 2.38433e+07 2.00943e+07 1.96709e+07 1.93258e+07 2.06226e+07 6.27138e+06 6.27165e+06 2.08637e+07 2.07995e+07 6.27186e+06 6.27186e+06 6.27166e+06 6.27173e+06 6.27004e+06 6.27185e+06 1.30197e+07 1.27704e+07 6.27186e+06 6.27186e+06 6.27186e+06 6.27186e+06 6.27186e+06 4.79331e+06 4.79342e+06 6.27186e+06 6.27175e+06 6.26879e+06 6.22347e+06 5.88033e+06 5.88114e+06 6.22338e+06 6.26876e+06 6.27175e+06 6.27186e+06 6.27186e+06 4.52173e+06 6.27186e+06 6.27186e+06 6.27185e+06 6.27181e+06 6.27018e+06 6.27164e+06 6.26664e+06 6.24097e+06 5.98462e+06 6.20166e+06 5.02939e+06 5.77099e+06 
        </DataArray>
        <DataArray type="Float32" Name="Velocity_Mixture" NumberOfComponents="3" format="ascii">
16.022 -0.539033 0 8.89563 2.15426 0 59.0805 -5.09451 0 43.449 -9.74886 0 321.455 12.9013 0 322.053 -15.6197 0 181.081 -7.51129 0 186.551 8.61918 0 309.478 44.4744 0 309.177 -44.2602 0 343.403 0.097114 0 343.405 -0.094906 0 290.538 -42.966 0 292.064 45.631 0 -0.022531 -0.393068 0 1.74391 -0.936861 0 285.853 -60.3876 0 288.148 76.1518 0 264.653 -48.7043 0 267.378 18.5414 0 270.38 -10.6599 0 256.396 73.656 0 -0.143489 -0.120717 0 0.000991663 -0.00599742 0 291.356 -16.8731 0 291.419 18.4195 0 0 0 0 -2.6648e-05 4.06133e-05 0 -0.00651605 -0.00185936 0 0.000200707 0.00851904 0 -0.0513516 0.0420586 0 -0.000194553 0.000300984 0 144.148 48.9482 0 169.382 -22.5018 0 0 0 0 0 0 0 0 0 0 0 0 0 0 0 0 22.2013 -0.843595 0 22.2039 0.848354 0 0 -1.44981e-05 0 0.000690741 -0.000597878 0 0.0215731 -0.0126736 0 0.377582 -0.135253 0 3.70335 -0.617252 0 3.73872 0.603886 0 0.394777 0.129797 0 0.023056 0.0122611 0 0.000760638 0.000588109 0 0 1.6162e-05 0 0 0 0 63.4389 0.00569173 0 0 0 0 0 0 0 0.000288821 0 0 0.000535148 6.94221e-05 0 0.0206419 0.00218335 0 0.0131835 -0.000384231 0 0.327591 -0.00838926 0 0.450694 0.0325236 0 5.5233 0.153695 0 4.41727 -0.0920765 0 37.0181 -0.00427792 0 29.1053 -0.166028 0 
        </DataArray>
        <DataArray type="Float32" Name="gradRho" format="ascii">
6.85363 4.71025 24.1198 25.0965 21.2137 21.7485 60.2212 63.2121 37.8017 43.6928 30.4208 31.7199 17.2108 15.8445 1.13853 1.75482 38.62 35.1071 74.1559 56.7072 58.2956 76.6459 0.266512 0.00476738 36.8154 34.5379 5.5448e-05 0.000642898 0.0088224 0.0112008 0.00789682 0.00118153 53.3223 50.4192 1.36594e-06 1.52815e-06 2.07931e-07 1.28839e-07 1.07194e-07 0.838067 0.838539 8.64435e-06 0.000243291 0.00449386 0.0427553 0.21994 0.220739 0.0425319 0.00438331 0.000232448 7.07068e-06 4.56635e-08 0.790803 3.68287e-06 5.74968e-06 0.000229001 0.00030468 0.00906366 0.00731747 0.128552 0.149286 1.2048 1.09381 3.98319 3.80961 
        </DataArray>
      </CellData>
    </Piece>
  </UnstructuredGrid>
</VTKFile>
