<?xml version="1.0"?>
<VTKFile type="UnstructuredGrid" version="0.1" byte_order="LittleEndian">
  <UnstructuredGrid>
    <Piece NumberOfPoints="50" NumberOfCells="65">
      <Points>
        <DataArray type="Float32" NumberOfComponents="3" format="ascii">
          0 5 0 0 -5 0 15 0.2 0 15 -0.2 0 35 0.2 0 35 -0.2 0 2.14286 4.31429 0 4.28571 3.62857 0 6.42857 2.94286 0 8.57143 2.25714 0 10.7143 1.57143 0 12.8571 0.885714 0 17.8571 0.2 0 20.7143 0.2 0 23.5714 0.2 0 26.4286 0.2 0 29.2857 0.2 0 32.1429 0.2 0 32.1429 -0.2 0 29.2857 -0.2 0 26.4286 -0.2 0 23.5714 -0.2 0 20.7143 -0.2 0 17.8571 -0.2 0 12.8571 -0.885714 0 10.7143 -1.57143 0 8.57143 -2.25714 0 6.42857 -2.94286 0 4.28571 -3.62857 0 2.14286 -4.31429 0 0 -2.5 0 0 -6.16307e-12 0 0 2.5 0 3.95974 -5.7158e-13 0 13.9286 -3.66374e-15 0 6.61813 2.81487e-12 0 2.86365 2.0434 0 2.86365 -2.0434 0 9.43036 1.987e-12 0 11.3926 2.79508e-14 0 4.83116 1.72297 0 4.83116 -1.72297 0 1.90629 -3.21031e-12 0 33.5714 0 0 16.4286 -1.80625e-18 0 25 6.93889e-18 0 19.2857 -6.93889e-18 0 30.7143 0 0 22.1429 0 0 27.8571 0 0 
        </DataArray>
      </Points>
      <Cells>
        <DataArray type="Int32" Name="connectivity" format="ascii">
          8 9 35 26 27 35 8 35 40 27 41 35 30 42 37 32 36 42 33 40 35 33 35 41 29 30 37 6 36 32 30 31 42 31 32 42 0 6 32 30 29 1 26 35 38 9 38 35 6 7 36 28 29 37 7 40 36 33 41 37 33 36 40 28 37 41 9 10 38 25 26 38 33 42 36 33 37 42 11 34 24 24 25 39 10 11 39 25 38 39 10 39 38 11 24 39 27 28 41 7 8 40 2 34 11 3 24 34 2 3 34 2 44 12 3 23 44 4 17 43 5 43 18 12 46 13 13 48 14 14 45 15 15 49 16 16 47 17 18 47 19 19 49 20 20 45 21 21 48 22 22 46 23 2 3 44 4 43 5 12 44 23 12 23 46 13 46 22 13 22 48 14 21 45 14 48 21 15 45 20 15 20 49 16 19 47 16 49 19 17 18 43 17 47 18 
        </DataArray>
        <DataArray type="Int32" Name="offsets" format="ascii">
          3 6 9 12 15 18 21 24 27 30 33 36 39 42 45 48 51 54 57 60 63 66 69 72 75 78 81 84 87 90 93 96 99 102 105 108 111 114 117 120 123 126 129 132 135 138 141 144 147 150 153 156 159 162 165 168 171 174 177 180 183 186 189 192 195 
        </DataArray>
        <DataArray type="UInt8" Name="types" format="ascii">
          5 5 5 5 5 5 5 5 5 5 5 5 5 5 5 5 5 5 5 5 5 5 5 5 5 5 5 5 5 5 5 5 5 5 5 5 5 5 5 5 5 5 5 5 5 5 5 5 5 5 5 5 5 5 5 5 5 5 5 5 5 5 5 5 5 
        </DataArray>
      </Cells>
      <CellData>
        <DataArray type="Float32" Name="F0_Alpha_SG_co2liq_mod.xml" format="ascii">
1.72682e-10 1.72682e-10 1.72682e-10 1.72682e-10 1.72299e-10 1.72299e-10 1.72682e-10 1.72682e-10 1.72405e-10 1.7241e-10 1.706e-10 1.706e-10 1.7067e-10 1.70667e-10 1.72682e-10 1.72682e-10 1.72686e-10 1.72687e-10 1.72683e-10 1.72682e-10 1.72682e-10 1.72682e-10 1.72682e-10 1.72682e-10 1.72691e-10 1.72691e-10 1.72682e-10 1.72682e-10 1.72682e-10 1.72682e-10 1.72682e-10 1.72682e-10 1.72682e-10 1.72682e-10 1.72682e-10 1.72682e-10 1.72682e-10 1.72682e-10 1.72682e-10 1.72734e-10 1.72734e-10 1.72682e-10 1.72682e-10 1.72682e-10 1.72682e-10 1.72682e-10 1.72682e-10 1.72682e-10 1.72682e-10 1.72682e-10 1.72682e-10 1.72682e-10 1.72854e-10 1.72682e-10 1.72682e-10 1.72682e-10 1.72682e-10 1.72682e-10 1.72682e-10 1.72682e-10 1.72682e-10 1.72682e-10 1.72682e-10 1.7269e-10 1.72682e-10 
        </DataArray>
        <DataArray type="Float32" Name="F0_Density_SG_co2liq_mod.xml" format="ascii">
5897.13 5897.13 5897.13 5897.13 5922.49 5922.49 5897.13 5897.13 5915.51 5915.14 6061.97 6061.97 6053.99 6054.03 5897.13 5897.13 5896.89 5896.78 5897.08 5897.12 5897.12 5897.11 5897.13 5897.13 5896.58 5896.58 5897.13 5897.13 5897.13 5897.13 5897.13 5897.13 5897.13 5897.13 5897.13 5897.13 5897.13 5897.13 5897.13 5893.82 5893.82 5897.13 5897.13 5897.13 5897.13 5897.13 5897.13 5897.13 5897.13 5897.13 5897.13 5897.13 5885.22 5897.13 5897.13 5897.13 5897.13 5897.13 5897.13 5897.13 5897.13 5897.13 5897.13 5896.63 5897.11 
        </DataArray>
        <DataArray type="Float32" Name="F0_Temperature_SG_co2liq_mod.xml" format="ascii">
41.7807 41.7807 41.7807 41.7807 41.8533 41.8532 41.7807 41.7807 41.8346 41.8336 42.1085 42.1085 42.0979 42.0979 41.7807 41.7807 41.7799 41.7796 41.7805 41.7807 41.7807 41.7806 41.7807 41.7807 41.779 41.779 41.7807 41.7807 41.7807 41.7807 41.7807 41.7807 41.7807 41.7807 41.7807 41.7807 41.7807 41.7807 41.7807 41.7701 41.7701 41.7807 41.7807 41.7807 41.7807 41.7807 41.7807 41.7807 41.7807 41.7807 41.7807 41.7807 41.7413 41.7807 41.7807 41.7807 41.7807 41.7807 41.7807 41.7807 41.7807 41.7807 41.7807 41.7791 41.7806 
        </DataArray>
        <DataArray type="Float32" Name="F0_Mass fraction_SG_co2liq_mod.xml" format="ascii">
9.5944e-09 9.5944e-09 9.5944e-09 9.5944e-09 8.60195e-09 8.60208e-09 9.5944e-09 9.5944e-09 8.85247e-09 8.8659e-09 5.16313e-09 5.1631e-09 5.30633e-09 5.3076e-09 9.5944e-09 9.5944e-09 9.60472e-09 9.609e-09 9.59657e-09 9.59463e-09 9.59465e-09 9.59507e-09 9.5944e-09 9.5944e-09 9.61743e-09 9.61742e-09 9.5944e-09 9.5944e-09 9.5944e-09 9.5944e-09 9.5944e-09 9.5944e-09 9.5944e-09 9.5944e-09 9.5944e-09 9.5944e-09 9.5944e-09 9.5944e-09 9.5944e-09 9.73668e-09 9.73668e-09 9.5944e-09 9.5944e-09 9.5944e-09 9.5944e-09 9.59448e-09 9.59451e-09 9.5944e-09 9.5944e-09 9.5944e-09 9.5944e-09 9.5944e-09 1.01753e-08 9.5944e-09 9.5944e-09 9.5944e-09 9.5944e-09 9.5944e-09 9.5944e-09 9.5944e-09 9.5944e-09 9.59441e-09 9.5944e-09 9.61562e-09 9.59509e-09 
        </DataArray>
        <DataArray type="Float32" Name="F1_Alpha_SG_co2gas_mod.xml" format="ascii">
1 1 1 1 1 1 1 1 1 1 1 1 1 1 1 1 1 1 1 1 1 1 1 1 1 1 1 1 1 1 1 1 1 1 1 1 1 1 1 1 1 1 1 1 1 1 1 1 1 1 1 1 1 1 1 1 1 1 1 1 1 1 1 1 1 
        </DataArray>
        <DataArray type="Float32" Name="F1_Density_SG_co2gas_mod.xml" format="ascii">
106.138 106.138 106.138 106.138 118.629 118.627 106.138 106.138 115.207 115.029 200.299 200.3 194.717 194.669 106.138 106.138 106.022 105.974 106.113 106.135 106.135 106.13 106.138 106.138 105.879 105.879 106.138 106.138 106.138 106.138 106.138 106.138 106.138 106.138 106.138 106.138 106.138 106.138 106.138 104.559 104.559 106.138 106.138 106.138 106.138 106.137 106.137 106.138 106.138 106.138 106.138 106.138 99.9756 106.138 106.138 106.138 106.138 106.138 106.138 106.138 106.138 106.138 106.138 105.899 106.13 
        </DataArray>
        <DataArray type="Float32" Name="F1_Temperature_SG_co2gas_mod.xml" format="ascii">
466.385 466.385 466.385 466.385 466.011 466.01 466.385 466.385 466.292 466.286 419.088 419.088 423.127 423.271 466.385 466.385 466.355 466.343 466.379 466.385 466.385 466.383 466.385 466.385 466.318 466.318 466.385 466.385 466.385 466.385 466.385 466.385 466.385 466.385 466.385 466.385 466.385 466.385 466.385 465.974 465.974 466.385 466.385 466.385 466.385 466.385 466.385 466.385 466.385 466.385 466.385 466.385 466.808 466.385 466.385 466.385 466.385 466.385 466.385 466.385 466.385 466.385 466.385 466.323 466.383 
        </DataArray>
        <DataArray type="Float32" Name="F1_Mass fraction_SG_co2gas_mod.xml" format="ascii">
1 1 1 1 1 1 1 1 1 1 1 1 1 1 1 1 1 1 1 1 1 1 1 1 1 1 1 1 1 1 1 1 1 1 1 1 1 1 1 1 1 1 1 1 1 1 1 1 1 1 1 1 1 1 1 1 1 1 1 1 1 1 1 1 1 
        </DataArray>
        <DataArray type="Float32" Name="Density_Mixture" format="ascii">
106.138 106.138 106.138 106.138 118.629 118.627 106.138 106.138 115.207 115.029 200.299 200.3 194.717 194.669 106.138 106.138 106.022 105.974 106.113 106.135 106.135 106.13 106.138 106.138 105.879 105.879 106.138 106.138 106.138 106.138 106.138 106.138 106.138 106.138 106.138 106.138 106.138 106.138 106.138 104.559 104.559 106.138 106.138 106.138 106.138 106.137 106.137 106.138 106.138 106.138 106.138 106.138 99.9756 106.138 106.138 106.138 106.138 106.138 106.138 106.138 106.138 106.138 106.138 105.899 106.13 
        </DataArray>
        <DataArray type="Float32" Name="Pressure_Mixture" format="ascii">
6.27186e+06 6.27186e+06 6.27186e+06 6.27186e+06 7.10782e+06 7.1077e+06 6.27186e+06 6.27186e+06 6.8819e+06 6.86979e+06 1.12521e+07 1.12522e+07 1.10276e+07 1.10287e+07 6.27186e+06 6.27186e+06 6.26357e+06 6.26013e+06 6.27011e+06 6.27167e+06 6.27166e+06 6.27132e+06 6.27186e+06 6.27186e+06 6.25338e+06 6.25339e+06 6.27186e+06 6.27186e+06 6.27186e+06 6.27186e+06 6.27186e+06 6.27186e+06 6.27186e+06 6.27186e+06 6.27186e+06 6.27186e+06 6.27186e+06 6.27186e+06 6.27186e+06 6.15919e+06 6.15919e+06 6.27186e+06 6.27186e+06 6.27186e+06 6.27186e+06 6.27179e+06 6.27177e+06 6.27186e+06 6.27186e+06 6.27186e+06 6.27186e+06 6.27186e+06 5.86239e+06 6.27186e+06 6.27186e+06 6.27186e+06 6.27186e+06 6.27186e+06 6.27186e+06 6.27186e+06 6.27186e+06 6.27185e+06 6.27186e+06 6.25482e+06 6.2713e+06 
        </DataArray>
        <DataArray type="Float32" Name="Velocity_Mixture" NumberOfComponents="3" format="ascii">
0 0 0 0 0 0 0 0 0 0 0 0 34.0558 -10.3815 0 34.0608 10.4063 0 -2.14189e-06 0 0 0 0 0 23.4618 11.1999 0 23.2763 -10.634 0 212.924 1.52666 0 212.922 -1.52803 0 199.93 -5.83167 0 196.997 14.8906 0 0 0 0 0 0 0 -0.450924 -0.224043 0 -0.387792 0.108568 0 -0.0472301 0.0402521 0 -0.00573868 0.00261401 0 -0.00555221 -0.00133316 0 -0.0145578 -0.0123879 0 0 0 0 0 0 0 -0.587244 0.260312 0 -0.587083 -0.260206 0 0 0 0 0 0 0 0 0 0 0 0 0 0 0 0 0 0 0 5.73495e-05 -1.11627e-05 0 -1.25039e-05 1.83828e-06 0 0 0 0 0 0 0 0 0 0 0 0 0 0 0 0 0.63101 -1.29959 0 0.63101 1.29959 0 0 0 0 0 0 0 0 0 0 0 0 0 0.000299331 -0.00133571 0 0.000424986 0.00174669 0 0 0 0 0 0 0 0 0 0 0 0 0 0 0 0 9.83197 0 0 0 0 0 0 0 0 0 0 0 0 0 0 0 0 0 0 0 0 0 0 0 0 0 0 3.65175e-05 2.27123e-05 0 0 0 0 0.147287 0 0 0.0239998 -0.000869041 0 
        </DataArray>
        <DataArray type="Float32" Name="gradRho" format="ascii">
5.16568e-07 1.40673e-07 3.34841e-06 7.54796e-06 28.4084 28.43 0.00107189 0.0010172 22.8477 22.807 56.7212 56.7231 18.8136 18.7602 1.48502e-10 2.42562e-09 2.96196 3.0248 0.0418315 0.0871116 0.0855335 0.0526267 0 0 4.30257 4.30319 0 0 0 0 0 0 0.00263888 0.00855332 0 0 0 0 0 0.937953 0.937953 0 0 0 2.48843e-07 0.00165624 0.00151182 2.36167e-07 0 0 0 0 0.660857 0 0 0 0 0 0 1.82999e-09 1.52312e-08 0.00019126 1.8718e-05 0.209507 0.0813573 
        </DataArray>
      </CellData>
    </Piece>
  </UnstructuredGrid>
</VTKFile>
