<?xml version="1.0"?>
<VTKFile type="UnstructuredGrid" version="0.1" byte_order="LittleEndian">
  <UnstructuredGrid>
    <Piece NumberOfPoints="50" NumberOfCells="65">
      <Points>
        <DataArray type="Float32" NumberOfComponents="3" format="ascii">
          0 5 0 0 -5 0 15 0.2 0 15 -0.2 0 35 0.2 0 35 -0.2 0 2.14286 4.31429 0 4.28571 3.62857 0 6.42857 2.94286 0 8.57143 2.25714 0 10.7143 1.57143 0 12.8571 0.885714 0 17.8571 0.2 0 20.7143 0.2 0 23.5714 0.2 0 26.4286 0.2 0 29.2857 0.2 0 32.1429 0.2 0 32.1429 -0.2 0 29.2857 -0.2 0 26.4286 -0.2 0 23.5714 -0.2 0 20.7143 -0.2 0 17.8571 -0.2 0 12.8571 -0.885714 0 10.7143 -1.57143 0 8.57143 -2.25714 0 6.42857 -2.94286 0 4.28571 -3.62857 0 2.14286 -4.31429 0 0 -2.5 0 0 -6.16307e-12 0 0 2.5 0 3.95974 -5.7158e-13 0 13.9286 -3.66374e-15 0 6.61813 2.81487e-12 0 2.86365 2.0434 0 2.86365 -2.0434 0 9.43036 1.987e-12 0 11.3926 2.79508e-14 0 4.83116 1.72297 0 4.83116 -1.72297 0 1.90629 -3.21031e-12 0 33.5714 0 0 16.4286 -1.80625e-18 0 25 6.93889e-18 0 19.2857 -6.93889e-18 0 30.7143 0 0 22.1429 0 0 27.8571 0 0 
        </DataArray>
      </Points>
      <Cells>
        <DataArray type="Int32" Name="connectivity" format="ascii">
          8 9 35 26 27 35 8 35 40 27 41 35 30 42 37 32 36 42 33 40 35 33 35 41 29 30 37 6 36 32 30 31 42 31 32 42 0 6 32 30 29 1 26 35 38 9 38 35 6 7 36 28 29 37 7 40 36 33 41 37 33 36 40 28 37 41 9 10 38 25 26 38 33 42 36 33 37 42 11 34 24 24 25 39 10 11 39 25 38 39 10 39 38 11 24 39 27 28 41 7 8 40 2 34 11 3 24 34 2 3 34 2 44 12 3 23 44 4 17 43 5 43 18 12 46 13 13 48 14 14 45 15 15 49 16 16 47 17 18 47 19 19 49 20 20 45 21 21 48 22 22 46 23 2 3 44 4 43 5 12 44 23 12 23 46 13 46 22 13 22 48 14 21 45 14 48 21 15 45 20 15 20 49 16 19 47 16 49 19 17 18 43 17 47 18 
        </DataArray>
        <DataArray type="Int32" Name="offsets" format="ascii">
          3 6 9 12 15 18 21 24 27 30 33 36 39 42 45 48 51 54 57 60 63 66 69 72 75 78 81 84 87 90 93 96 99 102 105 108 111 114 117 120 123 126 129 132 135 138 141 144 147 150 153 156 159 162 165 168 171 174 177 180 183 186 189 192 195 
        </DataArray>
        <DataArray type="UInt8" Name="types" format="ascii">
          5 5 5 5 5 5 5 5 5 5 5 5 5 5 5 5 5 5 5 5 5 5 5 5 5 5 5 5 5 5 5 5 5 5 5 5 5 5 5 5 5 5 5 5 5 5 5 5 5 5 5 5 5 5 5 5 5 5 5 5 5 5 5 5 5 
        </DataArray>
      </Cells>
      <CellData>
        <DataArray type="Float32" Name="F0_Alpha_SG_co2liq_mod.xml" format="ascii">
1.72682e-10 1.72682e-10 1.72679e-10 1.72682e-10 1.66144e-10 1.66261e-10 1.72583e-10 1.72581e-10 1.66452e-10 1.66118e-10 1.67766e-10 1.67766e-10 1.65049e-10 1.65299e-10 1.72682e-10 1.72682e-10 1.69412e-10 1.68319e-10 1.71807e-10 1.71283e-10 1.71201e-10 1.72171e-10 1.72682e-10 1.72682e-10 1.69065e-10 1.69051e-10 1.72682e-10 1.72682e-10 1.72682e-10 1.72682e-10 1.72682e-10 1.72682e-10 1.72689e-10 1.72646e-10 1.72682e-10 1.72682e-10 1.72682e-10 1.72682e-10 1.72682e-10 1.73096e-10 1.73096e-10 1.72682e-10 1.72682e-10 1.72682e-10 1.72684e-10 1.72728e-10 1.72728e-10 1.72684e-10 1.72682e-10 1.72682e-10 1.72682e-10 1.72682e-10 1.73163e-10 1.72682e-10 1.72682e-10 1.72682e-10 1.72682e-10 1.72682e-10 1.72682e-10 1.72682e-10 1.72683e-10 1.72709e-10 1.72685e-10 1.73001e-10 1.72753e-10 
        </DataArray>
        <DataArray type="Float32" Name="F0_Density_SG_co2liq_mod.xml" format="ascii">
5897.14 5897.13 5897.31 5897.14 6374.85 6367.88 5903.34 5903.46 6338.58 6356.72 6327.42 6327.44 6496.29 6480.02 5897.13 5897.13 6095.65 6160.15 5950.11 5980.44 5985.19 5927.62 5897.13 5897.13 6112.58 6113.34 5897.13 5897.13 5897.13 5897.13 5897.13 5897.13 5896.66 5899.38 5897.13 5897.13 5897.13 5897.13 5897.13 5869.71 5869.71 5897.13 5897.13 5897.13 5897.02 5894.18 5894.18 5897.02 5897.13 5897.13 5897.13 5897.13 5861.77 5897.13 5897.13 5897.13 5897.13 5897.13 5897.13 5897.13 5897.08 5895.39 5896.91 5876.22 5892.56 
        </DataArray>
        <DataArray type="Float32" Name="F0_Temperature_SG_co2liq_mod.xml" format="ascii">
41.7807 41.7807 41.7813 41.7807 42.3662 42.3626 41.7997 41.8001 42.3468 42.3567 42.3404 42.3404 42.4196 42.4133 41.7807 41.7807 42.1501 42.2172 41.9194 41.9809 41.9897 41.8664 41.7807 41.7807 42.1692 42.17 41.7807 41.7807 41.7807 41.7807 41.7807 41.7807 41.7792 41.7877 41.7807 41.7807 41.7807 41.7807 41.7807 41.6831 41.6831 41.7807 41.7807 41.7807 41.7803 41.7713 41.7713 41.7803 41.7807 41.7807 41.7807 41.7807 41.6495 41.7807 41.7807 41.7807 41.7807 41.7807 41.7807 41.7807 41.7805 41.7752 41.78 41.7086 41.766 
        </DataArray>
        <DataArray type="Float32" Name="F0_Mass fraction_SG_co2liq_mod.xml" format="ascii">
9.59413e-09 9.59438e-09 9.58665e-09 9.59396e-09 2.9754e-09 2.99718e-09 9.34448e-09 9.34003e-09 3.18916e-09 3.13419e-09 2.89454e-09 2.89445e-09 2.45083e-09 2.48886e-09 9.5944e-09 9.59442e-09 5.3538e-09 4.73328e-09 7.88569e-09 7.2064e-09 7.11107e-09 8.54548e-09 9.5944e-09 9.5944e-09 5.22701e-09 5.22051e-09 9.5944e-09 9.5944e-09 9.5944e-09 9.5944e-09 9.5944e-09 9.5944e-09 9.61417e-09 9.50165e-09 9.5944e-09 9.5944e-09 9.5944e-09 9.5944e-09 9.5944e-09 1.09773e-08 1.09772e-08 9.5944e-09 9.5944e-09 9.59447e-09 9.59903e-09 9.72048e-09 9.72072e-09 9.59912e-09 9.59448e-09 9.5944e-09 9.5944e-09 9.5944e-09 1.16867e-08 9.5944e-09 9.5944e-09 9.5944e-09 9.5944e-09 9.59442e-09 9.5944e-09 9.59459e-09 9.59646e-09 9.66814e-09 9.6038e-09 1.05991e-08 9.79242e-09 
        </DataArray>
        <DataArray type="Float32" Name="F1_Alpha_SG_co2gas_mod.xml" format="ascii">
1 1 1 1 1 1 1 1 1 1 1 1 1 1 1 1 1 1 1 1 1 1 1 1 1 1 1 1 1 1 1 1 1 1 1 1 1 1 1 1 1 1 1 1 1 1 1 1 1 1 1 1 1 1 1 1 1 1 1 1 1 1 1 1 1 
        </DataArray>
        <DataArray type="Float32" Name="F1_Density_SG_co2gas_mod.xml" format="ascii">
106.141 106.138 106.225 106.143 355.966 353.242 109.029 109.082 330.829 336.919 366.733 366.745 437.488 430.373 106.138 106.137 192.887 219.06 129.636 142.144 144.095 119.427 106.138 106.138 197.709 197.963 106.138 106.138 106.138 106.138 106.138 106.138 105.916 107.193 106.138 106.138 106.138 106.138 106.138 92.5565 92.5574 106.138 106.138 106.137 106.086 104.737 104.734 106.085 106.137 106.138 106.138 106.138 86.8546 106.138 106.138 106.138 106.138 106.137 106.138 106.136 106.115 105.314 106.032 95.913 103.954 
        </DataArray>
        <DataArray type="Float32" Name="F1_Temperature_SG_co2gas_mod.xml" format="ascii">
466.386 466.385 466.408 466.387 397.374 396.944 467.266 467.279 408.097 410.296 362.715 362.716 372.042 371.604 466.385 466.385 468.833 468.311 472.833 475.986 476.328 472.402 466.385 466.385 473.694 473.811 466.385 466.385 466.385 466.385 466.385 466.385 466.327 466.696 466.385 466.385 466.385 466.385 466.385 462.762 462.763 466.385 466.385 466.385 466.372 466.016 466.015 466.371 466.385 466.385 466.385 466.385 469.562 466.385 466.385 466.385 466.385 466.385 466.385 466.385 466.379 466.168 466.358 463.629 465.838 
        </DataArray>
        <DataArray type="Float32" Name="F1_Mass fraction_SG_co2gas_mod.xml" format="ascii">
1 1 1 1 1 1 1 1 1 1 1 1 1 1 1 1 1 1 1 1 1 1 1 1 1 1 1 1 1 1 1 1 1 1 1 1 1 1 1 1 1 1 1 1 1 1 1 1 1 1 1 1 1 1 1 1 1 1 1 1 1 1 1 1 1 
        </DataArray>
        <DataArray type="Float32" Name="Density_Mixture" format="ascii">
106.141 106.138 106.225 106.143 355.966 353.242 109.029 109.082 330.829 336.919 366.733 366.745 437.488 430.373 106.138 106.137 192.887 219.06 129.636 142.144 144.095 119.427 106.138 106.138 197.709 197.963 106.138 106.138 106.138 106.138 106.138 106.138 105.916 107.193 106.138 106.138 106.138 106.138 106.138 92.5565 92.5574 106.138 106.138 106.137 106.086 104.737 104.734 106.085 106.137 106.138 106.138 106.138 86.8546 106.138 106.138 106.138 106.138 106.137 106.138 106.136 106.115 105.314 106.032 95.913 103.954 
        </DataArray>
        <DataArray type="Float32" Name="Pressure_Mixture" format="ascii">
6.27208e+06 6.27187e+06 6.2781e+06 6.27221e+06 1.95679e+07 1.93894e+07 6.4807e+06 6.48448e+06 1.86365e+07 1.9103e+07 1.83486e+07 1.83493e+07 2.26496e+07 2.22397e+07 6.27186e+06 6.27184e+06 1.21904e+07 1.39483e+07 7.97745e+06 8.89743e+06 9.03884e+06 7.27198e+06 6.27186e+06 6.27186e+06 1.26563e+07 1.26771e+07 6.27186e+06 6.27186e+06 6.27186e+06 6.27186e+06 6.27186e+06 6.27186e+06 6.25598e+06 6.34781e+06 6.27186e+06 6.27186e+06 6.27186e+06 6.27186e+06 6.27186e+06 5.30746e+06 5.30752e+06 6.27186e+06 6.27186e+06 6.2718e+06 6.26813e+06 6.17177e+06 6.17159e+06 6.26806e+06 6.2718e+06 6.27186e+06 6.27186e+06 6.27186e+06 5.01131e+06 6.27186e+06 6.27186e+06 6.27186e+06 6.27186e+06 6.27184e+06 6.27186e+06 6.27171e+06 6.2702e+06 6.21298e+06 6.2643e+06 5.54408e+06 6.11634e+06 
        </DataArray>
        <DataArray type="Float32" Name="Velocity_Mixture" NumberOfComponents="3" format="ascii">
0.00703222 0.000575769 0 0.000399207 0.000326118 0 0.17794 0.145318 0 0.0477977 -0.285909 0 291.472 -1.68094 0 292.737 3.63179 0 7.24135 -1.81766 0 7.42685 1.79218 0 283.851 45.0713 0 281.024 -38.9988 0 338.071 0.225453 0 338.065 -0.228464 0 305.805 -41.2266 0 303.977 50.6401 0 0.000186786 0.000243547 0 -0.000632671 0.000489685 0 168.263 -19.5382 0 163.637 54.4726 0 56.3583 -9.72825 0 87.898 -14.1447 0 86.5834 11.8872 0 26.0709 0.736469 0 -3.67498e-05 -1.56526e-05 0 2.12567e-05 0 0 180.111 -23.3342 0 181.432 25.4964 0 0 0 0 0 0 0 0 0 0 0 0 0 0 0 0 0 0 0 -0.306418 -0.317932 0 2.3442 0.246379 0 0 0 0 0 0 0 0 0 0 0 0 0 0 0 0 10.1261 -1.24879 0 10.1259 1.24993 0 0 0 0 0 0 0 0.000321362 -0.00047363 0 0.0235855 -0.0216055 0 0.718154 -0.34292 0 0.76598 0.327663 0 0.0259252 0.0210678 0 0.000370794 0.000477066 0 0 0 0 0 0 0 0 0 0 47.6791 0.00118319 0 0 0 0 0 0 0 0 0 0 0 0 0 0.000166825 2.41077e-05 0 5.72873e-05 0 0 0.00856401 -0.000298551 0 0.0168638 0.00260168 0 0.722947 0.0847087 0 0.462489 -0.0141159 0 13.4546 -0.00255441 0 10.038 -0.260489 0 
        </DataArray>
        <DataArray type="Float32" Name="gradRho" format="ascii">
0.0248404 0.00139221 0.693463 0.866143 54.5181 54.5975 14.0138 13.2726 60.5827 73.0289 7.47918 9.37698 23.7432 23.5014 0.000128531 0.000784978 59.8772 56.8795 25.7364 31.5935 30.3428 31.7462 8.4077e-05 1.11758e-05 70.0897 71.6554 6.44615e-10 5.52922e-07 1.07724e-06 4.62526e-06 3.91355e-06 1.05647e-07 4.70379 7.96708 0 0 0 0 0 0.889407 0.88971 1.37167e-08 3.30985e-06 0.00023575 0.00869772 0.111454 0.110827 0.00832341 0.000219639 2.86221e-06 1.16663e-08 0 0.822137 1.08096e-09 3.16008e-09 5.41063e-07 9.73724e-07 0.000144045 9.07513e-05 0.00749969 0.0102219 0.306983 0.256488 3.13681 2.88937 
        </DataArray>
      </CellData>
    </Piece>
  </UnstructuredGrid>
</VTKFile>
