<?xml version="1.0"?>
<VTKFile type="UnstructuredGrid" version="0.1" byte_order="LittleEndian">
  <UnstructuredGrid>
    <Piece NumberOfPoints="50" NumberOfCells="65">
      <Points>
        <DataArray type="Float32" NumberOfComponents="3" format="ascii">
          0 5 0 0 -5 0 15 0.2 0 15 -0.2 0 35 0.2 0 35 -0.2 0 2.14286 4.31429 0 4.28571 3.62857 0 6.42857 2.94286 0 8.57143 2.25714 0 10.7143 1.57143 0 12.8571 0.885714 0 17.8571 0.2 0 20.7143 0.2 0 23.5714 0.2 0 26.4286 0.2 0 29.2857 0.2 0 32.1429 0.2 0 32.1429 -0.2 0 29.2857 -0.2 0 26.4286 -0.2 0 23.5714 -0.2 0 20.7143 -0.2 0 17.8571 -0.2 0 12.8571 -0.885714 0 10.7143 -1.57143 0 8.57143 -2.25714 0 6.42857 -2.94286 0 4.28571 -3.62857 0 2.14286 -4.31429 0 0 -2.5 0 0 -6.16307e-12 0 0 2.5 0 3.95974 -5.7158e-13 0 13.9286 -3.66374e-15 0 6.61813 2.81487e-12 0 2.86365 2.0434 0 2.86365 -2.0434 0 9.43036 1.987e-12 0 11.3926 2.79508e-14 0 4.83116 1.72297 0 4.83116 -1.72297 0 1.90629 -3.21031e-12 0 33.5714 0 0 16.4286 -1.80625e-18 0 25 6.93889e-18 0 19.2857 -6.93889e-18 0 30.7143 0 0 22.1429 0 0 27.8571 0 0 
        </DataArray>
      </Points>
      <Cells>
        <DataArray type="Int32" Name="connectivity" format="ascii">
          8 9 35 26 27 35 8 35 40 27 41 35 30 42 37 32 36 42 33 40 35 33 35 41 29 30 37 6 36 32 30 31 42 31 32 42 0 6 32 30 29 1 26 35 38 9 38 35 6 7 36 28 29 37 7 40 36 33 41 37 33 36 40 28 37 41 9 10 38 25 26 38 33 42 36 33 37 42 11 34 24 24 25 39 10 11 39 25 38 39 10 39 38 11 24 39 27 28 41 7 8 40 2 34 11 3 24 34 2 3 34 2 44 12 3 23 44 4 17 43 5 43 18 12 46 13 13 48 14 14 45 15 15 49 16 16 47 17 18 47 19 19 49 20 20 45 21 21 48 22 22 46 23 2 3 44 4 43 5 12 44 23 12 23 46 13 46 22 13 22 48 14 21 45 14 48 21 15 45 20 15 20 49 16 19 47 16 49 19 17 18 43 17 47 18 
        </DataArray>
        <DataArray type="Int32" Name="offsets" format="ascii">
          3 6 9 12 15 18 21 24 27 30 33 36 39 42 45 48 51 54 57 60 63 66 69 72 75 78 81 84 87 90 93 96 99 102 105 108 111 114 117 120 123 126 129 132 135 138 141 144 147 150 153 156 159 162 165 168 171 174 177 180 183 186 189 192 195 
        </DataArray>
        <DataArray type="UInt8" Name="types" format="ascii">
          5 5 5 5 5 5 5 5 5 5 5 5 5 5 5 5 5 5 5 5 5 5 5 5 5 5 5 5 5 5 5 5 5 5 5 5 5 5 5 5 5 5 5 5 5 5 5 5 5 5 5 5 5 5 5 5 5 5 5 5 5 5 5 5 5 
        </DataArray>
      </Cells>
      <CellData>
        <DataArray type="Float32" Name="F0_Alpha_SG_co2liq_mod.xml" format="ascii">
1.72682e-10 1.72682e-10 1.72681e-10 1.72683e-10 1.66284e-10 1.66393e-10 1.72616e-10 1.72614e-10 1.66697e-10 1.66385e-10 1.67782e-10 1.67781e-10 1.65225e-10 1.65464e-10 1.72682e-10 1.72682e-10 1.69853e-10 1.68813e-10 1.71996e-10 1.71552e-10 1.71478e-10 1.72353e-10 1.72682e-10 1.72682e-10 1.69443e-10 1.69432e-10 1.72682e-10 1.72682e-10 1.72682e-10 1.72682e-10 1.72682e-10 1.72682e-10 1.7269e-10 1.72662e-10 1.72682e-10 1.72682e-10 1.72682e-10 1.72682e-10 1.72682e-10 1.73081e-10 1.73081e-10 1.72682e-10 1.72682e-10 1.72682e-10 1.72683e-10 1.72723e-10 1.72723e-10 1.72683e-10 1.72682e-10 1.72682e-10 1.72682e-10 1.72682e-10 1.7315e-10 1.72682e-10 1.72682e-10 1.72682e-10 1.72682e-10 1.72682e-10 1.72682e-10 1.72682e-10 1.72683e-10 1.72705e-10 1.72685e-10 1.72986e-10 1.72746e-10 
        </DataArray>
        <DataArray type="Float32" Name="F0_Density_SG_co2liq_mod.xml" format="ascii">
5897.13 5897.13 5897.2 5897.09 6360.9 6354.58 5901.31 5901.41 6318.77 6335.33 6324.39 6324.42 6482.35 6466.82 5897.13 5897.13 6068.88 6129.9 5939.09 5964.77 5969.06 5916.89 5897.13 5897.13 6088.2 6088.87 5897.13 5897.13 5897.13 5897.13 5897.13 5897.13 5896.61 5898.42 5897.13 5897.13 5897.13 5897.13 5897.13 5870.73 5870.73 5897.13 5897.13 5897.13 5897.04 5894.52 5894.52 5897.04 5897.13 5897.13 5897.13 5897.13 5862.7 5897.13 5897.13 5897.13 5897.13 5897.13 5897.13 5897.13 5897.09 5895.63 5896.95 5877.24 5893 
        </DataArray>
        <DataArray type="Float32" Name="F0_Temperature_SG_co2liq_mod.xml" format="ascii">
41.7807 41.7807 41.7809 41.7806 42.359 42.3556 41.7936 41.7939 42.3354 42.345 42.3387 42.3387 42.4142 42.4081 41.7807 41.7807 42.1175 42.1875 41.8943 41.9504 41.959 41.8383 41.7807 41.7807 42.1413 42.1421 41.7807 41.7807 41.7807 41.7807 41.7807 41.7807 41.779 41.7847 41.7807 41.7807 41.7807 41.7807 41.7807 41.6872 41.6872 41.7807 41.7807 41.7807 41.7804 41.7724 41.7724 41.7804 41.7807 41.7807 41.7807 41.7807 41.6536 41.7807 41.7807 41.7807 41.7807 41.7807 41.7807 41.7807 41.7806 41.7759 41.7801 41.7124 41.7674 
        </DataArray>
        <DataArray type="Float32" Name="F0_Mass fraction_SG_co2liq_mod.xml" format="ascii">
9.59441e-09 9.5944e-09 9.59131e-09 9.59601e-09 3.04719e-09 3.06748e-09 9.42393e-09 9.41972e-09 3.29313e-09 3.24165e-09 2.91299e-09 2.9129e-09 2.49083e-09 2.52845e-09 9.5944e-09 9.59443e-09 5.68092e-09 5.01886e-09 8.17272e-09 7.54485e-09 7.44837e-09 8.88056e-09 9.5944e-09 9.5944e-09 5.5312e-09 5.52315e-09 9.5944e-09 9.5944e-09 9.5944e-09 9.5944e-09 9.5944e-09 9.5944e-09 9.61648e-09 9.54072e-09 9.5944e-09 9.5944e-09 9.5944e-09 9.5944e-09 9.5944e-09 1.09156e-08 1.09155e-08 9.5944e-09 9.5944e-09 9.59445e-09 9.59808e-09 9.70568e-09 9.70596e-09 9.59816e-09 9.59445e-09 9.5944e-09 9.5944e-09 9.5944e-09 1.16177e-08 9.5944e-09 9.5944e-09 9.5944e-09 9.5944e-09 9.59442e-09 9.5944e-09 9.59454e-09 9.59597e-09 9.65786e-09 9.60211e-09 1.05436e-08 9.77315e-09 
        </DataArray>
        <DataArray type="Float32" Name="F1_Alpha_SG_co2gas_mod.xml" format="ascii">
1 1 1 1 1 1 1 1 1 1 1 1 1 1 1 1 1 1 1 1 1 1 1 1 1 1 1 1 1 1 1 1 1 1 1 1 1 1 1 1 1 1 1 1 1 1 1 1 1 1 1 1 1 1 1 1 1 1 1 1 1 1 1 1 1 
        </DataArray>
        <DataArray type="Float32" Name="F1_Density_SG_co2gas_mod.xml" format="ascii">
106.138 106.138 106.173 106.12 347.113 344.698 108.093 108.142 319.854 325.176 364.271 364.282 429.995 423.193 106.138 106.137 181.453 206.183 124.989 135.624 137.421 114.834 106.138 106.138 186.506 186.786 106.138 106.138 106.138 106.138 106.138 106.138 105.89 106.746 106.138 106.138 106.138 106.138 106.138 93.088 93.0888 106.138 106.138 106.137 106.096 104.899 104.896 106.095 106.137 106.138 106.138 106.138 87.378 106.138 106.138 106.138 106.138 106.138 106.138 106.136 106.12 105.428 106.051 96.426 104.162 
        </DataArray>
        <DataArray type="Float32" Name="F1_Temperature_SG_co2gas_mod.xml" format="ascii">
466.385 466.385 466.395 466.381 400.387 399.933 466.958 466.971 411.044 413.41 363.683 363.684 372.877 372.464 466.385 466.385 470.004 470.092 471.438 474.816 475.151 470.508 466.385 466.385 477.225 477.193 466.385 466.385 466.385 466.385 466.385 466.385 466.32 466.559 466.385 466.385 466.385 466.385 466.385 462.909 462.91 466.385 466.385 466.385 466.374 466.059 466.058 466.374 466.385 466.385 466.385 466.385 469.54 466.385 466.385 466.385 466.385 466.385 466.385 466.385 466.381 466.198 466.363 463.771 465.89 
        </DataArray>
        <DataArray type="Float32" Name="F1_Mass fraction_SG_co2gas_mod.xml" format="ascii">
1 1 1 1 1 1 1 1 1 1 1 1 1 1 1 1 1 1 1 1 1 1 1 1 1 1 1 1 1 1 1 1 1 1 1 1 1 1 1 1 1 1 1 1 1 1 1 1 1 1 1 1 1 1 1 1 1 1 1 1 1 1 1 1 1 
        </DataArray>
        <DataArray type="Float32" Name="Density_Mixture" format="ascii">
106.138 106.138 106.173 106.12 347.113 344.698 108.093 108.142 319.854 325.176 364.271 364.282 429.995 423.193 106.138 106.137 181.453 206.183 124.989 135.624 137.421 114.834 106.138 106.138 186.506 186.786 106.138 106.138 106.138 106.138 106.138 106.138 105.89 106.746 106.138 106.138 106.138 106.138 106.138 93.088 93.0888 106.138 106.138 106.137 106.096 104.899 104.896 106.095 106.137 106.138 106.138 106.138 87.378 106.138 106.138 106.138 106.138 106.138 106.138 106.136 106.12 105.428 106.051 96.426 104.162 
        </DataArray>
        <DataArray type="Float32" Name="Pressure_Mixture" format="ascii">
6.27185e+06 6.27186e+06 6.27435e+06 6.27056e+06 1.92104e+07 1.9048e+07 6.41265e+06 6.41619e+06 1.81251e+07 1.85527e+07 1.82705e+07 1.82712e+07 2.22985e+07 2.19065e+07 6.27186e+06 6.27184e+06 1.1446e+07 1.31294e+07 7.63448e+06 8.42576e+06 8.5558e+06 6.92679e+06 6.27186e+06 6.27186e+06 1.19842e+07 1.20026e+07 6.27186e+06 6.27186e+06 6.27186e+06 6.27186e+06 6.27186e+06 6.27186e+06 6.25413e+06 6.31554e+06 6.27186e+06 6.27186e+06 6.27186e+06 6.27186e+06 6.27186e+06 5.34501e+06 5.34506e+06 6.27186e+06 6.27186e+06 6.27182e+06 6.2689e+06 6.18338e+06 6.18316e+06 6.26883e+06 6.27181e+06 6.27186e+06 6.27186e+06 6.27186e+06 5.04656e+06 6.27186e+06 6.27186e+06 6.27186e+06 6.27186e+06 6.27184e+06 6.27186e+06 6.27175e+06 6.27059e+06 6.22113e+06 6.26566e+06 5.58045e+06 6.13117e+06 
        </DataArray>
        <DataArray type="Float32" Name="Velocity_Mixture" NumberOfComponents="3" format="ascii">
-0.000940225 0.000194898 0 -0.000172983 0.000344303 0 0.0771903 0.120448 0 -0.00532799 -0.202924 0 287.103 -2.86509 0 288.268 4.84154 0 4.82011 -1.32717 0 4.97514 1.33347 0 278.827 45.4537 0 275.905 -38.8413 0 337.151 0.257242 0 337.146 -0.260172 0 306.028 -40.7189 0 303.784 51.0729 0 0.00018831 0.000235232 0 -0.000715025 0.000533644 0 153.476 -16.354 0 149.333 50.6914 0 45.6017 -8.57791 0 73.8844 -13.2961 0 72.8096 11.2839 0 16.6768 -2.87457 0 1.54169e-06 -1.79164e-06 0 1.60078e-05 0 0 166.124 -22.8482 0 167.325 24.8313 0 0 0 0 0 0 0 0 0 0 0 0 0 0 0 0 0 0 0 -0.329655 -0.309053 0 1.18145 0.0566484 0 0 0 0 0 0 0 0 0 0 0 0 0 0 0 0 9.53278 -1.27172 0 9.53257 1.27266 0 0 0 0 0 0 0 0.000216906 -0.000348527 0 0.0184336 -0.0181127 0 0.624382 -0.320948 0 0.668531 0.306768 0 0.0203675 0.0177108 0 0.000253246 0.000351873 0 0 0 0 0 0 0 0 0 0 46.3969 0.000953975 0 0 0 0 0 0 0 0 0 0 0 0 0 0.000104301 1.06402e-05 0 2.97201e-05 0 0 0.00615922 -0.000218505 0 0.012601 0.00202267 0 0.604543 0.075424 0 0.376447 -0.0117886 0 12.2971 -0.0022658 0 9.0802 -0.242797 0 
        </DataArray>
        <DataArray type="Float32" Name="gradRho" format="ascii">
0.010101 0.00522982 0.474517 0.606403 56.9966 57.0238 11.6433 10.9562 61.9774 73.6559 11.9174 13.6004 24.7469 24.3975 0.000102748 9.24678e-05 58.4158 55.7572 22.2881 28.1683 26.8556 27.7522 0.000102185 1.35175e-05 69.5539 70.9669 7.74318e-12 3.69721e-07 1.23065e-06 3.24945e-06 1.96274e-06 4.53693e-08 3.10504 6.45096 0 0 0 0 0 0.893526 0.893803 7.16618e-09 2.13408e-06 0.000178643 0.00749086 0.105828 0.105025 0.00713708 0.000165928 1.84708e-06 5.9562e-09 0 0.823299 1.50268e-10 1.61279e-09 2.98544e-07 5.68066e-07 9.91192e-05 6.04622e-05 0.00574929 0.00799278 0.269048 0.222405 3.02852 2.77841 
        </DataArray>
      </CellData>
    </Piece>
  </UnstructuredGrid>
</VTKFile>
