<?xml version="1.0"?>
<VTKFile type="UnstructuredGrid" version="0.1" byte_order="LittleEndian">
  <UnstructuredGrid>
    <Piece NumberOfPoints="50" NumberOfCells="65">
      <Points>
        <DataArray type="Float32" NumberOfComponents="3" format="ascii">
          0 5 0 0 -5 0 15 0.2 0 15 -0.2 0 35 0.2 0 35 -0.2 0 2.14286 4.31429 0 4.28571 3.62857 0 6.42857 2.94286 0 8.57143 2.25714 0 10.7143 1.57143 0 12.8571 0.885714 0 17.8571 0.2 0 20.7143 0.2 0 23.5714 0.2 0 26.4286 0.2 0 29.2857 0.2 0 32.1429 0.2 0 32.1429 -0.2 0 29.2857 -0.2 0 26.4286 -0.2 0 23.5714 -0.2 0 20.7143 -0.2 0 17.8571 -0.2 0 12.8571 -0.885714 0 10.7143 -1.57143 0 8.57143 -2.25714 0 6.42857 -2.94286 0 4.28571 -3.62857 0 2.14286 -4.31429 0 0 -2.5 0 0 -6.16307e-12 0 0 2.5 0 3.95974 -5.7158e-13 0 13.9286 -3.66374e-15 0 6.61813 2.81487e-12 0 2.86365 2.0434 0 2.86365 -2.0434 0 9.43036 1.987e-12 0 11.3926 2.79508e-14 0 4.83116 1.72297 0 4.83116 -1.72297 0 1.90629 -3.21031e-12 0 33.5714 0 0 16.4286 -1.80625e-18 0 25 6.93889e-18 0 19.2857 -6.93889e-18 0 30.7143 0 0 22.1429 0 0 27.8571 0 0 
        </DataArray>
      </Points>
      <Cells>
        <DataArray type="Int32" Name="connectivity" format="ascii">
          8 9 35 26 27 35 8 35 40 27 41 35 30 42 37 32 36 42 33 40 35 33 35 41 29 30 37 6 36 32 30 31 42 31 32 42 0 6 32 30 29 1 26 35 38 9 38 35 6 7 36 28 29 37 7 40 36 33 41 37 33 36 40 28 37 41 9 10 38 25 26 38 33 42 36 33 37 42 11 34 24 24 25 39 10 11 39 25 38 39 10 39 38 11 24 39 27 28 41 7 8 40 2 34 11 3 24 34 2 3 34 2 44 12 3 23 44 4 17 43 5 43 18 12 46 13 13 48 14 14 45 15 15 49 16 16 47 17 18 47 19 19 49 20 20 45 21 21 48 22 22 46 23 2 3 44 4 43 5 12 44 23 12 23 46 13 46 22 13 22 48 14 21 45 14 48 21 15 45 20 15 20 49 16 19 47 16 49 19 17 18 43 17 47 18 
        </DataArray>
        <DataArray type="Int32" Name="offsets" format="ascii">
          3 6 9 12 15 18 21 24 27 30 33 36 39 42 45 48 51 54 57 60 63 66 69 72 75 78 81 84 87 90 93 96 99 102 105 108 111 114 117 120 123 126 129 132 135 138 141 144 147 150 153 156 159 162 165 168 171 174 177 180 183 186 189 192 195 
        </DataArray>
        <DataArray type="UInt8" Name="types" format="ascii">
          5 5 5 5 5 5 5 5 5 5 5 5 5 5 5 5 5 5 5 5 5 5 5 5 5 5 5 5 5 5 5 5 5 5 5 5 5 5 5 5 5 5 5 5 5 5 5 5 5 5 5 5 5 5 5 5 5 5 5 5 5 5 5 5 5 
        </DataArray>
      </Cells>
      <CellData>
        <DataArray type="Float32" Name="F0_Alpha_SG_co2liq_mod.xml" format="ascii">
1.71844e-10 1.71891e-10 1.69611e-10 1.70066e-10 1.6511e-10 1.65028e-10 1.66753e-10 1.66443e-10 1.63783e-10 1.63653e-10 1.67766e-10 1.67766e-10 1.61792e-10 1.62093e-10 1.72657e-10 1.72549e-10 1.62801e-10 1.6276e-10 1.62888e-10 1.63811e-10 1.64292e-10 1.62413e-10 1.72681e-10 1.72681e-10 1.64662e-10 1.64707e-10 1.72682e-10 1.72682e-10 1.72683e-10 1.72683e-10 1.72688e-10 1.72682e-10 1.64892e-10 1.65358e-10 1.72682e-10 1.72682e-10 1.72682e-10 1.72682e-10 1.72682e-10 1.73328e-10 1.73328e-10 1.72682e-10 1.72682e-10 1.72685e-10 1.7272e-10 1.72914e-10 1.72914e-10 1.7272e-10 1.72685e-10 1.72682e-10 1.72682e-10 1.72682e-10 1.73363e-10 1.72682e-10 1.72682e-10 1.72682e-10 1.72682e-10 1.72684e-10 1.72682e-10 1.72687e-10 1.72708e-10 1.7286e-10 1.72735e-10 1.73251e-10 1.72965e-10 
        </DataArray>
        <DataArray type="Float32" Name="F0_Density_SG_co2liq_mod.xml" format="ascii">
5947.31 5944.72 6070.77 6044.44 6498.68 6503.94 6252.52 6270.61 6591.06 6597.85 6347.07 6347.05 6743.96 6723.6 5898.7 5905.47 6590.41 6596.3 6520.83 6489.52 6461.73 6547.66 5897.18 5897.16 6481.79 6479.03 5897.13 5897.13 5897.08 5897.08 5896.78 5897.13 6335.72 6308.7 5897.13 5897.13 5897.13 5897.13 5897.13 5852.84 5852.84 5897.13 5897.12 5896.92 5894.67 5882.08 5882.08 5894.67 5896.92 5897.12 5897.13 5897.13 5846.33 5897.13 5897.13 5897.13 5897.12 5897 5897.11 5896.8 5895.46 5885.62 5893.75 5858.65 5878.56 
        </DataArray>
        <DataArray type="Float32" Name="F0_Temperature_SG_co2liq_mod.xml" format="ascii">
41.9132 41.9073 42.1199 42.0847 42.4205 42.4224 42.2925 42.305 42.4513 42.4533 42.3515 42.3515 42.4891 42.4849 41.7856 41.8061 42.4511 42.4529 42.4285 42.417 42.406 42.4377 41.7808 41.7808 42.414 42.4129 41.7807 41.7807 41.7805 41.7805 41.7796 41.7807 42.3452 42.3293 41.7807 41.7807 41.7807 41.7807 41.7807 41.6076 41.6076 41.7807 41.7806 41.78 41.7729 41.7302 41.7302 41.7729 41.78 41.7806 41.7807 41.7807 41.5737 41.7807 41.7807 41.7807 41.7807 41.7803 41.7806 41.7796 41.7754 41.7427 41.7699 41.6354 41.7174 
        </DataArray>
        <DataArray type="Float32" Name="F0_Mass fraction_SG_co2liq_mod.xml" format="ascii">
7.97883e-09 8.04111e-09 5.88579e-09 6.25345e-09 2.42695e-09 2.41552e-09 4.07864e-09 3.97559e-09 2.22378e-09 2.21546e-09 2.75594e-09 2.75601e-09 1.93741e-09 1.96617e-09 9.52931e-09 9.26091e-09 2.39523e-09 2.37381e-09 2.78324e-09 2.76174e-09 2.83079e-09 2.72299e-09 9.5922e-09 9.59308e-09 2.61119e-09 2.61787e-09 9.5944e-09 9.59443e-09 9.5964e-09 9.59639e-09 9.60929e-09 9.59453e-09 3.85278e-09 3.99364e-09 9.5944e-09 9.5944e-09 9.5944e-09 9.5944e-09 9.5944e-09 1.21611e-08 1.2161e-08 9.59441e-09 9.59485e-09 9.60336e-09 9.69939e-09 1.02896e-08 1.02897e-08 9.69923e-09 9.6034e-09 9.59485e-09 9.59441e-09 9.5944e-09 1.29799e-08 9.5944e-09 9.59441e-09 9.59443e-09 9.59463e-09 9.59972e-09 9.5952e-09 9.60846e-09 9.66522e-09 1.01136e-08 9.73945e-09 1.17107e-08 1.04766e-08 
        </DataArray>
        <DataArray type="Float32" Name="F1_Alpha_SG_co2gas_mod.xml" format="ascii">
1 1 1 1 1 1 1 1 1 1 1 1 1 1 1 1 1 1 1 1 1 1 1 1 1 1 1 1 1 1 1 1 1 1 1 1 1 1 1 1 1 1 1 1 1 1 1 1 1 1 1 1 1 1 1 1 1 1 1 1 1 1 1 1 1 
        </DataArray>
        <DataArray type="Float32" Name="F1_Density_SG_co2gas_mod.xml" format="ascii">
128.09 127.077 174.942 164.382 442.118 444.347 255.631 262.526 485.438 487.377 386.373 386.363 563.186 554.301 106.876 110.031 447.942 452.273 381.628 384.923 375.023 390.537 106.163 106.153 408.742 407.637 106.138 106.137 106.115 106.115 105.97 106.136 271.158 261.214 106.138 106.138 106.138 106.138 106.138 83.4186 83.4192 106.138 106.133 106.037 104.968 98.8469 98.8459 104.97 106.036 106.133 106.138 106.138 78.0852 106.138 106.138 106.137 106.135 106.078 106.129 105.98 105.346 100.597 104.529 86.6745 97.0535 
        </DataArray>
        <DataArray type="Float32" Name="F1_Temperature_SG_co2gas_mod.xml" format="ascii">
473.852 473.261 489.587 489.833 369.089 369.297 467.657 467.842 369.109 370.041 353.343 353.342 364.64 364.229 466.587 467.467 399.755 398.173 437.679 419.786 417.934 439.607 466.392 466.389 392.028 391.907 466.385 466.385 466.379 466.379 466.341 466.385 496.024 496.42 466.385 466.385 466.385 466.385 466.385 460.186 460.186 466.385 466.384 466.359 466.077 464.442 464.437 466.077 466.359 466.384 466.385 466.385 468.311 466.385 466.385 466.385 466.385 466.37 466.383 466.344 466.176 464.904 465.969 461 464.126 
        </DataArray>
        <DataArray type="Float32" Name="F1_Mass fraction_SG_co2gas_mod.xml" format="ascii">
1 1 1 1 1 1 1 1 1 1 1 1 1 1 1 1 1 1 1 1 1 1 1 1 1 1 1 1 1 1 1 1 1 1 1 1 1 1 1 1 1 1 1 1 1 1 1 1 1 1 1 1 1 1 1 1 1 1 1 1 1 1 1 1 1 
        </DataArray>
        <DataArray type="Float32" Name="Density_Mixture" format="ascii">
128.09 127.077 174.942 164.382 442.118 444.347 255.631 262.526 485.438 487.377 386.373 386.363 563.186 554.301 106.876 110.031 447.942 452.273 381.628 384.923 375.023 390.537 106.163 106.153 408.742 407.637 106.138 106.137 106.115 106.115 105.97 106.136 271.158 261.214 106.138 106.138 106.138 106.138 106.138 83.4186 83.4192 106.138 106.133 106.037 104.968 98.8469 98.8459 104.97 106.036 106.133 106.138 106.138 78.0852 106.138 106.138 106.137 106.135 106.078 106.129 105.98 105.346 100.597 104.529 86.6745 97.0535 
        </DataArray>
        <DataArray type="Float32" Name="Pressure_Mixture" format="ascii">
7.89063e+06 7.81036e+06 1.14989e+07 1.07572e+07 2.271e+07 2.28423e+07 1.64006e+07 1.68738e+07 2.50234e+07 2.51925e+07 1.88551e+07 1.88545e+07 2.88091e+07 2.83077e+07 6.32474e+06 6.55161e+06 2.50071e+07 2.5154e+07 2.32666e+07 2.24792e+07 2.17779e+07 2.39393e+07 6.27363e+06 6.27292e+06 2.22845e+07 2.22146e+07 6.27186e+06 6.27183e+06 6.27025e+06 6.27026e+06 6.25989e+06 6.27175e+06 1.85628e+07 1.78645e+07 6.27186e+06 6.27186e+06 6.27186e+06 6.27186e+06 6.27186e+06 4.66491e+06 4.66496e+06 6.27185e+06 6.2715e+06 6.26465e+06 6.18832e+06 5.75239e+06 5.75226e+06 6.18844e+06 6.26462e+06 6.27149e+06 6.27185e+06 6.27186e+06 4.40175e+06 6.27186e+06 6.27185e+06 6.27183e+06 6.27167e+06 6.26758e+06 6.27121e+06 6.26056e+06 6.21529e+06 5.87662e+06 6.15708e+06 4.89177e+06 5.62752e+06 
        </DataArray>
        <DataArray type="Float32" Name="Velocity_Mixture" NumberOfComponents="3" format="ascii">
58.8452 -3.65272 0 41.7686 10.2984 0 136.694 -14.7791 0 123.39 6.61274 0 322.83 19.9471 0 322.948 -22.5634 0 241.79 -9.82085 0 246.96 15.111 0 308.186 46.2431 0 308.387 -46.7061 0 343.667 0.0796462 0 343.671 -0.0769856 0 283.494 -42.5466 0 285.096 45.2676 0 1.27489 -1.12991 0 9.3804 -4.05763 0 292.224 -65.9809 0 295.607 76.3599 0 285.963 -59.7716 0 284.025 33.6324 0 289.175 -24.7293 0 279.339 81.0358 0 -0.786788 -0.752005 0 0.0144227 0.0273544 0 300.518 -15.0776 0 300.043 15.9718 0 0.000141761 0 0 -0.000223817 0.000125938 0 -0.0526472 -0.0133658 0 -0.0212676 0.0405396 0 -0.33771 0.28767 0 -0.00247023 0.00336972 0 226.893 71.5091 0 238.849 -46.8565 0 3.56623e-06 0 0 0 0 0 0 0 0 0 0 0 0 0 0 27.2462 -0.727582 0 27.2497 0.730544 0 3.73709e-05 -6.51191e-05 0 0.00244328 -0.0016527 0 0.0534333 -0.0246974 0 0.694526 -0.192024 0 5.43339 -0.662724 0 5.44613 0.6485 0 0.717878 0.182896 0 0.0564224 0.0237929 0 0.00263628 0.00160768 0 4.77979e-05 6.22547e-05 0 0 0 0 67.28 0.00381163 0 0 0 0 2.14986e-05 0 0 0.00134811 -3.85825e-05 0 0.00219736 0.000248602 0 0.0579402 0.00495424 0 0.040082 -0.00108455 0 0.710639 -0.016417 0 0.923283 0.0510271 0 8.59137 0.0960306 0 7.05813 -0.120064 0 45.4288 -0.00299719 0 35.6591 -0.100122 0 
        </DataArray>
        <DataArray type="Float32" Name="gradRho" format="ascii">
16.4574 14.085 39.2144 41.252 24.1429 24.4402 63.1248 67.7574 37.3006 40.5667 38.7165 40.27 17.8978 16.2579 5.26983 6.63221 26.7518 23.8006 68.4536 49.611 51.9315 66.7052 1.35299 0.253248 23.0394 19.0255 0.000638855 0.00812893 0.0571013 0.0772938 0.0267992 0.00947134 57.6263 54.4776 2.19923e-05 2.68201e-05 6.16849e-06 8.54947e-07 7.17919e-07 0.818197 0.818409 2.73777e-05 0.00061949 0.00822978 0.0610027 0.255654 0.255632 0.0612438 0.00810673 0.000598695 2.50845e-05 4.67517e-07 0.768982 2.17183e-05 2.99816e-05 0.000820821 0.0010406 0.0217586 0.0181845 0.227215 0.257955 1.54462 1.41871 3.94557 3.80497 
        </DataArray>
      </CellData>
    </Piece>
  </UnstructuredGrid>
</VTKFile>
