<?xml version="1.0"?>
<VTKFile type="UnstructuredGrid" version="0.1" byte_order="LittleEndian">
  <UnstructuredGrid>
    <Piece NumberOfPoints="50" NumberOfCells="65">
      <Points>
        <DataArray type="Float32" NumberOfComponents="3" format="ascii">
          0 5 0 0 -5 0 15 0.2 0 15 -0.2 0 35 0.2 0 35 -0.2 0 2.14286 4.31429 0 4.28571 3.62857 0 6.42857 2.94286 0 8.57143 2.25714 0 10.7143 1.57143 0 12.8571 0.885714 0 17.8571 0.2 0 20.7143 0.2 0 23.5714 0.2 0 26.4286 0.2 0 29.2857 0.2 0 32.1429 0.2 0 32.1429 -0.2 0 29.2857 -0.2 0 26.4286 -0.2 0 23.5714 -0.2 0 20.7143 -0.2 0 17.8571 -0.2 0 12.8571 -0.885714 0 10.7143 -1.57143 0 8.57143 -2.25714 0 6.42857 -2.94286 0 4.28571 -3.62857 0 2.14286 -4.31429 0 0 -2.5 0 0 -6.16307e-12 0 0 2.5 0 3.95974 -5.7158e-13 0 13.9286 -3.66374e-15 0 6.61813 2.81487e-12 0 2.86365 2.0434 0 2.86365 -2.0434 0 9.43036 1.987e-12 0 11.3926 2.79508e-14 0 4.83116 1.72297 0 4.83116 -1.72297 0 1.90629 -3.21031e-12 0 33.5714 0 0 16.4286 -1.80625e-18 0 25 6.93889e-18 0 19.2857 -6.93889e-18 0 30.7143 0 0 22.1429 0 0 27.8571 0 0 
        </DataArray>
      </Points>
      <Cells>
        <DataArray type="Int32" Name="connectivity" format="ascii">
          8 9 35 26 27 35 8 35 40 27 41 35 30 42 37 32 36 42 33 40 35 33 35 41 29 30 37 6 36 32 30 31 42 31 32 42 0 6 32 30 29 1 26 35 38 9 38 35 6 7 36 28 29 37 7 40 36 33 41 37 33 36 40 28 37 41 9 10 38 25 26 38 33 42 36 33 37 42 11 34 24 24 25 39 10 11 39 25 38 39 10 39 38 11 24 39 27 28 41 7 8 40 2 34 11 3 24 34 2 3 34 2 44 12 3 23 44 4 17 43 5 43 18 12 46 13 13 48 14 14 45 15 15 49 16 16 47 17 18 47 19 19 49 20 20 45 21 21 48 22 22 46 23 2 3 44 4 43 5 12 44 23 12 23 46 13 46 22 13 22 48 14 21 45 14 48 21 15 45 20 15 20 49 16 19 47 16 49 19 17 18 43 17 47 18 
        </DataArray>
        <DataArray type="Int32" Name="offsets" format="ascii">
          3 6 9 12 15 18 21 24 27 30 33 36 39 42 45 48 51 54 57 60 63 66 69 72 75 78 81 84 87 90 93 96 99 102 105 108 111 114 117 120 123 126 129 132 135 138 141 144 147 150 153 156 159 162 165 168 171 174 177 180 183 186 189 192 195 
        </DataArray>
        <DataArray type="UInt8" Name="types" format="ascii">
          5 5 5 5 5 5 5 5 5 5 5 5 5 5 5 5 5 5 5 5 5 5 5 5 5 5 5 5 5 5 5 5 5 5 5 5 5 5 5 5 5 5 5 5 5 5 5 5 5 5 5 5 5 5 5 5 5 5 5 5 5 5 5 5 5 
        </DataArray>
      </Cells>
      <CellData>
        <DataArray type="Float32" Name="F0_Alpha_SG_co2liq_mod.xml" format="ascii">
1.71141e-10 1.71099e-10 1.68108e-10 1.68546e-10 1.6504e-10 1.64961e-10 1.65772e-10 1.6535e-10 1.63612e-10 1.63519e-10 1.67772e-10 1.67772e-10 1.61414e-10 1.61714e-10 1.72602e-10 1.72405e-10 1.62579e-10 1.62658e-10 1.62411e-10 1.6329e-10 1.63852e-10 1.61939e-10 1.72673e-10 1.72683e-10 1.6443e-10 1.6451e-10 1.72682e-10 1.72682e-10 1.72684e-10 1.72683e-10 1.72693e-10 1.72682e-10 1.63506e-10 1.63908e-10 1.72682e-10 1.72682e-10 1.72682e-10 1.72682e-10 1.72682e-10 1.73347e-10 1.73347e-10 1.72682e-10 1.72682e-10 1.72687e-10 1.72731e-10 1.72943e-10 1.72943e-10 1.72731e-10 1.72687e-10 1.72682e-10 1.72682e-10 1.72682e-10 1.7338e-10 1.72682e-10 1.72682e-10 1.72682e-10 1.72682e-10 1.72685e-10 1.72682e-10 1.72689e-10 1.72716e-10 1.72886e-10 1.72748e-10 1.73274e-10 1.72996e-10 
        </DataArray>
        <DataArray type="Float32" Name="F0_Density_SG_co2liq_mod.xml" format="ascii">
5987.14 5989.73 6152.74 6127.53 6507.62 6512.73 6319.22 6343.66 6608.19 6613.25 6347.39 6347.37 6771.5 6751.07 5902.15 5914.35 6618.02 6616.23 6567.72 6535.18 6502.91 6595.34 5897.72 5897.08 6506.46 6502.19 5897.13 5897.13 5897 5897.04 5896.4 5897.12 6423.93 6399.96 5897.13 5897.13 5897.13 5897.13 5897.13 5851.37 5851.37 5897.13 5897.11 5896.82 5894 5880.14 5880.14 5894 5896.82 5897.11 5897.13 5897.13 5845.04 5897.13 5897.13 5897.13 5897.12 5896.94 5897.1 5896.66 5894.95 5883.92 5892.92 5856.97 5876.46 
        </DataArray>
        <DataArray type="Float32" Name="F0_Temperature_SG_co2liq_mod.xml" format="ascii">
41.9933 41.9979 42.2102 42.1851 42.4238 42.4256 42.3356 42.3496 42.4563 42.4577 42.3517 42.3517 42.4945 42.4906 41.7962 41.8314 42.4591 42.4586 42.4442 42.4335 42.422 42.4526 41.7825 41.7805 42.4233 42.4218 41.7807 41.7807 41.7803 41.7804 41.7784 41.7806 42.3898 42.3786 41.7807 41.7807 41.7807 41.7807 41.7807 41.6002 41.6002 41.7807 41.7806 41.7797 41.7707 41.7232 41.7232 41.7707 41.7797 41.7806 41.7807 41.7807 41.5666 41.7807 41.7807 41.7807 41.7806 41.7801 41.7806 41.7792 41.7738 41.7367 41.7672 41.6276 41.7095 
        </DataArray>
        <DataArray type="Float32" Name="F0_Mass fraction_SG_co2liq_mod.xml" format="ascii">
7.11565e-09 7.061e-09 5.0657e-09 5.31172e-09 2.3947e-09 2.38389e-09 3.65204e-09 3.54491e-09 2.17913e-09 2.17261e-09 2.75226e-09 2.75233e-09 1.89678e-09 1.92438e-09 9.38979e-09 8.93978e-09 2.30307e-09 2.2977e-09 2.59842e-09 2.5957e-09 2.66481e-09 2.54186e-09 9.56955e-09 9.59668e-09 2.51822e-09 2.5255e-09 9.59438e-09 9.59445e-09 9.59971e-09 9.59831e-09 9.62519e-09 9.59479e-09 3.41081e-09 3.50858e-09 9.5944e-09 9.5944e-09 9.5944e-09 9.5944e-09 9.5944e-09 1.22826e-08 1.22825e-08 9.59443e-09 9.59516e-09 9.60753e-09 9.72869e-09 1.03893e-08 1.03894e-08 9.72841e-09 9.60757e-09 9.59517e-09 9.59443e-09 9.5944e-09 1.31024e-08 9.5944e-09 9.59441e-09 9.59445e-09 9.59481e-09 9.60247e-09 9.59571e-09 9.6143e-09 9.68706e-09 1.01969e-08 9.77615e-09 1.18345e-08 1.05906e-08 
        </DataArray>
        <DataArray type="Float32" Name="F1_Alpha_SG_co2gas_mod.xml" format="ascii">
1 1 1 1 1 1 1 1 1 1 1 1 1 1 1 1 1 1 1 1 1 1 1 1 1 1 1 1 1 1 1 1 1 1 1 1 1 1 1 1 1 1 1 1 1 1 1 1 1 1 1 1 1 1 1 1 1 1 1 1 1 1 1 1 1 
        </DataArray>
        <DataArray type="Float32" Name="F1_Density_SG_co2gas_mod.xml" format="ascii">
143.999 145.14 204.182 194.432 448.499 450.668 286.84 295.897 496.149 497.737 386.923 386.913 576.248 567.322 108.493 114.059 467.183 468.376 410.508 411.115 399.846 420.182 106.418 106.112 424.846 423.551 106.138 106.137 106.078 106.094 105.792 106.133 307.948 298.983 106.138 106.138 106.138 106.138 106.138 82.5814 82.5819 106.137 106.129 105.99 104.647 97.8821 97.8815 104.65 105.99 106.129 106.137 106.138 77.3456 106.138 106.138 106.137 106.133 106.047 106.123 105.914 105.104 99.7604 104.13 85.7539 95.991 
        </DataArray>
        <DataArray type="Float32" Name="F1_Temperature_SG_co2gas_mod.xml" format="ascii">
479.417 479.303 495.663 496.206 367.307 367.506 458.634 459.33 367.085 367.663 352.986 352.986 364.501 364.114 467.04 468.678 393.467 391.805 426.669 412.344 409.95 428.187 466.457 466.379 387.279 386.711 466.385 466.385 466.37 466.374 466.294 466.384 487.45 487.95 466.385 466.385 466.385 466.385 466.385 459.948 459.948 466.385 466.383 466.346 465.991 464.18 464.175 465.992 466.346 466.383 466.385 466.385 468.015 466.385 466.385 466.385 466.384 466.361 466.381 466.327 466.112 464.677 465.866 460.726 463.856 
        </DataArray>
        <DataArray type="Float32" Name="F1_Mass fraction_SG_co2gas_mod.xml" format="ascii">
1 1 1 1 1 1 1 1 1 1 1 1 1 1 1 1 1 1 1 1 1 1 1 1 1 1 1 1 1 1 1 1 1 1 1 1 1 1 1 1 1 1 1 1 1 1 1 1 1 1 1 1 1 1 1 1 1 1 1 1 1 1 1 1 1 
        </DataArray>
        <DataArray type="Float32" Name="Density_Mixture" format="ascii">
143.999 145.14 204.182 194.432 448.499 450.668 286.84 295.897 496.149 497.737 386.923 386.913 576.248 567.322 108.493 114.059 467.183 468.376 410.508 411.115 399.846 420.182 106.418 106.112 424.846 423.551 106.138 106.137 106.078 106.094 105.792 106.133 307.948 298.983 106.138 106.138 106.138 106.138 106.138 82.5814 82.5819 106.137 106.129 105.99 104.647 97.8821 97.8815 104.65 105.99 106.129 106.137 106.138 77.3456 106.138 106.138 106.137 106.133 106.047 106.123 105.914 105.104 99.7604 104.13 85.7539 95.991 
        </DataArray>
        <DataArray type="Float32" Name="Pressure_Mixture" format="ascii">
9.09653e+06 9.17325e+06 1.37483e+07 1.30648e+07 2.29349e+07 2.30631e+07 1.81368e+07 1.87672e+07 2.54499e+07 2.55757e+07 1.88633e+07 1.88627e+07 2.94862e+07 2.8984e+07 6.44097e+06 6.84388e+06 2.56945e+07 2.56498e+07 2.44408e+07 2.36267e+07 2.28164e+07 2.51299e+07 6.29188e+06 6.27003e+06 2.29056e+07 2.27983e+07 6.27187e+06 6.27182e+06 6.26759e+06 6.26871e+06 6.24716e+06 6.27154e+06 2.08198e+07 2.02095e+07 6.27186e+06 6.27186e+06 6.27186e+06 6.27186e+06 6.27186e+06 4.60636e+06 4.6064e+06 6.27184e+06 6.27124e+06 6.26131e+06 6.16534e+06 5.68389e+06 5.68378e+06 6.16556e+06 6.26127e+06 6.27124e+06 6.27183e+06 6.27186e+06 4.34835e+06 6.27186e+06 6.27185e+06 6.27181e+06 6.27152e+06 6.26537e+06 6.2708e+06 6.25588e+06 6.19802e+06 5.81713e+06 6.12862e+06 4.82701e+06 5.55246e+06 
        </DataArray>
        <DataArray type="Float32" Name="Velocity_Mixture" NumberOfComponents="3" format="ascii">
95.6358 -8.03066 0 75.4415 20.2117 0 177.206 -22.5128 0 169.947 19.8794 0 322.87 23.44 0 322.788 -25.737 0 263.353 -12.1165 0 268.25 19.9737 0 306.941 47.5348 0 307.133 -48.189 0 343.732 0.0719003 0 343.736 -0.0691167 0 279.76 -42.53 0 281.326 45.376 0 4.33623 -1.20544 0 19.6038 -7.48416 0 293.301 -67.9363 0 297.071 76.4368 0 291.004 -64.7092 0 287.778 38.5132 0 294.059 -30.6074 0 284.624 83.2614 0 -1.08751 -1.43557 0 -0.0599503 0.0843547 0 303.028 -15.5332 0 302.248 15.9812 0 0.000532344 -4.52656e-05 0 2.60736e-05 0.0002646 0 -0.139398 -0.0335423 0 -0.0401238 0.0991658 0 -0.70444 0.630962 0 -0.00760807 0.0101187 0 253.543 78.7116 0 261.032 -57.0137 0 6.64004e-05 3.49605e-05 0 0 0 0 0 0 0 0 0 0 0 0 0 29.9947 -0.675432 0 29.9985 0.677852 0 0.000114201 -0.000119681 0 0.00428878 -0.00259221 0 0.0803766 -0.0330504 0 0.917003 -0.222194 0 6.47128 -0.674958 0 6.47561 0.660186 0 0.941435 0.212857 0 0.0844374 0.0317912 0 0.00459385 0.00251449 0 0.000131354 0.000115466 0 0 0 0 69.1101 0.00311699 0 3.43023e-05 0 0 8.62804e-05 0 0 0.00263533 -7.4457e-05 0 0.00411011 0.000426347 0 0.0921988 0.00706565 0 0.065931 -0.00170757 0 1.00264 -0.0220087 0 1.27364 0.059354 0 10.467 0.0729081 0 8.67575 -0.121665 0 49.5746 -0.00261339 0 38.8473 -0.0803641 0 
        </DataArray>
        <DataArray type="Float32" Name="gradRho" format="ascii">
22.2739 20.3156 45.3489 46.8139 26.7308 26.9625 61.4239 65.8218 37.9036 40.2944 42.7661 44.2779 18.5356 16.8033 9.92834 11.4083 21.8831 19.1656 62.4127 44.4523 47.4616 60.2566 2.72806 0.810403 16.8922 12.4486 0.00192428 0.0158731 0.114685 0.150057 0.0610276 0.0252433 56.4928 52.9779 7.44611e-05 9.4679e-05 2.61858e-05 2.09097e-06 1.77779e-06 0.805951 0.806141 4.78102e-05 0.000938464 0.0107647 0.0718998 0.271743 0.27174 0.0722567 0.0106452 0.000911955 4.63052e-05 9.94725e-07 0.754907 4.70594e-05 6.22668e-05 0.00144789 0.00180073 0.0320919 0.0271983 0.290672 0.32725 1.70982 1.5791 3.8879 3.76472 
        </DataArray>
      </CellData>
    </Piece>
  </UnstructuredGrid>
</VTKFile>
