<?xml version="1.0"?>
<VTKFile type="UnstructuredGrid" version="0.1" byte_order="LittleEndian">
  <UnstructuredGrid>
    <Piece NumberOfPoints="50" NumberOfCells="65">
      <Points>
        <DataArray type="Float32" NumberOfComponents="3" format="ascii">
          0 5 0 0 -5 0 15 0.2 0 15 -0.2 0 35 0.2 0 35 -0.2 0 2.14286 4.31429 0 4.28571 3.62857 0 6.42857 2.94286 0 8.57143 2.25714 0 10.7143 1.57143 0 12.8571 0.885714 0 17.8571 0.2 0 20.7143 0.2 0 23.5714 0.2 0 26.4286 0.2 0 29.2857 0.2 0 32.1429 0.2 0 32.1429 -0.2 0 29.2857 -0.2 0 26.4286 -0.2 0 23.5714 -0.2 0 20.7143 -0.2 0 17.8571 -0.2 0 12.8571 -0.885714 0 10.7143 -1.57143 0 8.57143 -2.25714 0 6.42857 -2.94286 0 4.28571 -3.62857 0 2.14286 -4.31429 0 0 -2.5 0 0 -6.16307e-12 0 0 2.5 0 3.95974 -5.7158e-13 0 13.9286 -3.66374e-15 0 6.61813 2.81487e-12 0 2.86365 2.0434 0 2.86365 -2.0434 0 9.43036 1.987e-12 0 11.3926 2.79508e-14 0 4.83116 1.72297 0 4.83116 -1.72297 0 1.90629 -3.21031e-12 0 33.5714 0 0 16.4286 -1.80625e-18 0 25 6.93889e-18 0 19.2857 -6.93889e-18 0 30.7143 0 0 22.1429 0 0 27.8571 0 0 
        </DataArray>
      </Points>
      <Cells>
        <DataArray type="Int32" Name="connectivity" format="ascii">
          8 9 35 26 27 35 8 35 40 27 41 35 30 42 37 32 36 42 33 40 35 33 35 41 29 30 37 6 36 32 30 31 42 31 32 42 0 6 32 30 29 1 26 35 38 9 38 35 6 7 36 28 29 37 7 40 36 33 41 37 33 36 40 28 37 41 9 10 38 25 26 38 33 42 36 33 37 42 11 34 24 24 25 39 10 11 39 25 38 39 10 39 38 11 24 39 27 28 41 7 8 40 2 34 11 3 24 34 2 3 34 2 44 12 3 23 44 4 17 43 5 43 18 12 46 13 13 48 14 14 45 15 15 49 16 16 47 17 18 47 19 19 49 20 20 45 21 21 48 22 22 46 23 2 3 44 4 43 5 12 44 23 12 23 46 13 46 22 13 22 48 14 21 45 14 48 21 15 45 20 15 20 49 16 19 47 16 49 19 17 18 43 17 47 18 
        </DataArray>
        <DataArray type="Int32" Name="offsets" format="ascii">
          3 6 9 12 15 18 21 24 27 30 33 36 39 42 45 48 51 54 57 60 63 66 69 72 75 78 81 84 87 90 93 96 99 102 105 108 111 114 117 120 123 126 129 132 135 138 141 144 147 150 153 156 159 162 165 168 171 174 177 180 183 186 189 192 195 
        </DataArray>
        <DataArray type="UInt8" Name="types" format="ascii">
          5 5 5 5 5 5 5 5 5 5 5 5 5 5 5 5 5 5 5 5 5 5 5 5 5 5 5 5 5 5 5 5 5 5 5 5 5 5 5 5 5 5 5 5 5 5 5 5 5 5 5 5 5 5 5 5 5 5 5 5 5 5 5 5 5 
        </DataArray>
      </Cells>
      <CellData>
        <DataArray type="Float32" Name="F0_Alpha_SG_co2liq_mod.xml" format="ascii">
1.67276e-10 1.665e-10 1.6345e-10 1.63901e-10 1.65058e-10 1.64956e-10 1.63375e-10 1.63086e-10 1.63133e-10 1.63108e-10 1.67785e-10 1.67786e-10 1.60332e-10 1.60633e-10 1.71358e-10 1.7089e-10 1.62169e-10 1.62479e-10 1.61597e-10 1.62145e-10 1.62787e-10 1.61101e-10 1.72512e-10 1.72705e-10 1.63515e-10 1.63477e-10 1.72682e-10 1.72683e-10 1.72688e-10 1.72691e-10 1.72679e-10 1.72684e-10 1.61574e-10 1.61462e-10 1.72682e-10 1.72682e-10 1.72682e-10 1.72682e-10 1.72682e-10 1.73394e-10 1.73394e-10 1.72682e-10 1.72683e-10 1.72695e-10 1.72772e-10 1.73029e-10 1.73029e-10 1.72772e-10 1.72695e-10 1.72683e-10 1.72682e-10 1.72682e-10 1.7342e-10 1.72682e-10 1.72682e-10 1.72682e-10 1.72683e-10 1.72691e-10 1.72684e-10 1.727e-10 1.72748e-10 1.72966e-10 1.72797e-10 1.73333e-10 1.73086e-10 
        </DataArray>
        <DataArray type="Float32" Name="F0_Density_SG_co2liq_mod.xml" format="ascii">
6203.62 6245.26 6423.79 6401.7 6525.48 6531.02 6501.16 6520.24 6652.6 6654.09 6347.89 6347.87 6849.6 6828.83 5975.21 6001.96 6676.78 6659.48 6664.86 6639.61 6604.26 6691.79 5907.77 5895.67 6580.72 6581.82 5897.13 5897.06 5896.76 5896.52 5897.34 5897.01 6588.01 6591.65 5897.13 5897.13 5897.13 5897.13 5897.13 5847.6 5847.6 5897.13 5897.06 5896.31 5891.36 5874.32 5874.32 5891.37 5896.3 5897.06 5897.13 5897.13 5841.87 5897.13 5897.13 5897.12 5897.09 5896.58 5897.02 5895.98 5892.9 5878.6 5889.73 5852.5 5870.28 
        </DataArray>
        <DataArray type="Float32" Name="F0_Temperature_SG_co2liq_mod.xml" format="ascii">
42.2552 42.2873 42.3897 42.3794 42.4302 42.4321 42.4214 42.4283 42.4683 42.4687 42.3519 42.3519 42.5078 42.5045 41.971 42.0192 42.4743 42.47 42.4714 42.4649 42.4552 42.4778 41.8128 41.776 42.4482 42.4485 41.7807 41.7804 41.7795 41.7788 41.7813 41.7803 42.4504 42.4515 41.7807 41.7807 41.7807 41.7807 41.7807 41.5806 41.5806 41.7807 41.7804 41.7781 41.7621 41.7013 41.7013 41.7621 41.7781 41.7804 41.7807 41.7807 41.5485 41.7807 41.7807 41.7807 41.7805 41.7789 41.7803 41.777 41.7671 41.7175 41.7567 41.6059 41.6854 
        </DataArray>
        <DataArray type="Float32" Name="F0_Mass fraction_SG_co2liq_mod.xml" format="ascii">
4.60206e-09 4.34633e-09 3.43472e-09 3.49227e-09 2.30633e-09 2.29801e-09 2.79303e-09 2.73714e-09 2.07654e-09 2.0745e-09 2.74582e-09 2.74589e-09 1.79285e-09 1.81775e-09 7.34169e-09 6.8267e-09 2.12153e-09 2.14336e-09 2.25973e-09 2.27954e-09 2.33068e-09 2.22511e-09 9.17467e-09 9.65648e-09 2.31377e-09 2.31526e-09 9.59448e-09 9.59745e-09 9.61007e-09 9.62001e-09 9.58558e-09 9.59963e-09 2.6686e-09 2.67238e-09 9.59434e-09 9.59438e-09 9.59438e-09 9.59441e-09 9.59441e-09 1.26114e-08 1.26113e-08 9.59457e-09 9.59741e-09 9.62926e-09 9.84559e-09 1.07058e-08 1.0706e-08 9.84512e-09 9.62928e-09 9.59743e-09 9.59457e-09 9.5944e-09 1.34125e-08 9.59441e-09 9.59449e-09 9.59469e-09 9.59622e-09 9.61766e-09 9.59909e-09 9.64316e-09 9.77689e-09 1.04701e-08 9.92027e-09 1.21844e-08 1.09471e-08 
        </DataArray>
        <DataArray type="Float32" Name="F1_Alpha_SG_co2gas_mod.xml" format="ascii">
1 1 1 1 1 1 1 1 1 1 1 1 1 1 1 1 1 1 1 1 1 1 1 1 1 1 1 1 1 1 1 1 1 1 1 1 1 1 1 1 1 1 1 1 1 1 1 1 1 1 1 1 1 1 1 1 1 1 1 1 1 1 1 1 1 
        </DataArray>
        <DataArray type="Float32" Name="F1_Density_SG_co2gas_mod.xml" format="ascii">
225.49 239.244 305.692 300.448 467.011 468.813 380.278 388.492 522.628 523.178 387.892 387.882 612.549 603.459 139.464 150.245 510.37 504.826 476.615 472.279 461.277 484.493 111.084 105.443 465.061 464.732 106.137 106.103 105.962 105.85 106.237 106.079 398.88 398.26 106.138 106.138 106.138 106.138 106.138 80.3988 80.3991 106.136 106.104 105.747 103.382 94.9414 94.9402 103.387 105.746 106.104 106.136 106.138 75.534 106.138 106.137 106.134 106.117 105.876 106.085 105.592 104.122 97.1147 102.591 83.2562 92.8162 
        </DataArray>
        <DataArray type="Float32" Name="F1_Temperature_SG_co2gas_mod.xml" format="ascii">
490.594 494.183 490.964 486.589 359.39 360.057 430.244 429.685 363.082 363.189 352.333 352.333 364.502 364.172 477.367 479.587 379.916 378.221 402.54 397.071 393.37 405.503 467.77 466.206 381.446 382.125 466.385 466.376 466.339 466.31 466.415 466.37 447.887 450.16 466.386 466.385 466.385 466.385 466.385 459.321 459.322 466.385 466.376 466.282 465.656 463.376 463.37 465.657 466.282 466.376 466.385 466.385 467.051 466.385 466.385 466.384 466.38 466.316 466.371 466.242 465.851 463.95 465.47 459.97 463.036 
        </DataArray>
        <DataArray type="Float32" Name="F1_Mass fraction_SG_co2gas_mod.xml" format="ascii">
1 1 1 1 1 1 1 1 1 1 1 1 1 1 1 1 1 1 1 1 1 1 1 1 1 1 1 1 1 1 1 1 1 1 1 1 1 1 1 1 1 1 1 1 1 1 1 1 1 1 1 1 1 1 1 1 1 1 1 1 1 1 1 1 1 
        </DataArray>
        <DataArray type="Float32" Name="Density_Mixture" format="ascii">
225.49 239.244 305.692 300.448 467.011 468.813 380.278 388.492 522.628 523.178 387.892 387.882 612.549 603.459 139.464 150.245 510.37 504.826 476.615 472.279 461.277 484.493 111.084 105.443 465.061 464.732 106.137 106.103 105.962 105.85 106.237 106.079 398.88 398.26 106.138 106.138 106.138 106.138 106.138 80.3988 80.3991 106.136 106.104 105.747 103.382 94.9414 94.9402 103.387 105.746 106.104 106.136 106.138 75.534 106.138 106.137 106.134 106.117 105.876 106.085 105.592 104.122 97.1147 102.591 83.2562 92.8162 
        </DataArray>
        <DataArray type="Float32" Name="Pressure_Mixture" format="ascii">
1.51102e+07 1.62101e+07 2.08161e+07 2.02538e+07 2.33835e+07 2.35224e+07 2.27723e+07 2.3252e+07 2.65528e+07 2.65898e+07 1.88761e+07 1.88756e+07 3.13997e+07 3.08917e+07 8.74079e+06 9.53321e+06 2.71516e+07 2.67233e+07 2.68564e+07 2.62306e+07 2.5352e+07 2.75226e+07 6.62771e+06 6.22229e+06 2.47654e+07 2.47929e+07 6.27179e+06 6.26941e+06 6.25926e+06 6.2513e+06 6.27902e+06 6.26765e+06 2.49472e+07 2.5038e+07 6.27191e+06 6.27187e+06 6.27187e+06 6.27185e+06 6.27185e+06 4.45391e+06 4.45394e+06 6.27172e+06 6.26943e+06 6.24391e+06 6.07514e+06 5.47548e+06 5.47531e+06 6.07549e+06 6.24389e+06 6.26942e+06 6.27172e+06 6.27186e+06 4.21523e+06 6.27185e+06 6.27178e+06 6.27162e+06 6.2704e+06 6.25318e+06 6.26809e+06 6.23284e+06 6.12785e+06 5.62914e+06 6.01906e+06 4.65151e+06 5.32851e+06 
        </DataArray>
        <DataArray type="Float32" Name="Velocity_Mixture" NumberOfComponents="3" format="ascii">
214.841 -33.7244 0 203.536 59.3925 0 262.656 -43.5859 0 266.925 47.7035 0 319.635 31.7843 0 319.374 -33.2963 0 296.213 -17.5652 0 297.061 28.4475 0 301.563 52.6339 0 301.756 -53.1988 0 343.8 0.0527749 0 343.803 -0.0498087 0 268.449 -43.0225 0 269.749 46.5006 0 63.5331 17.2396 0 99.7414 -25.4416 0 292.307 -72.7434 0 296.559 76.9854 0 295.527 -74.3549 0 290.775 47.61 0 299.202 -42.1119 0 290.098 86.434 0 10.9055 -0.287472 0 -1.26814 0.221098 0 306.48 -18.3087 0 305.819 17.2811 0 -0.00243484 -0.00118527 0 -0.036383 0.0192566 0 -0.441869 -0.00042661 0 -0.619914 -0.0210814 0 0.289011 0.0179233 0 -0.108024 0.141269 0 290.152 88.5261 0 290.898 -76.2158 0 0.00115406 -0.000110394 0 0.00026701 2.46875e-05 0 0.000144781 -0.00042625 0 0 -2.42528e-05 0 0 2.60469e-05 0 38.7429 -0.550426 0 38.7473 0.552041 0 0.000926124 -0.000574961 0 0.0182514 -0.00808514 0 0.230506 -0.0679972 0 1.90253 -0.309568 0 10.2207 -0.671369 0 10.208 0.659712 0 1.91723 0.302226 0 0.239071 0.0649042 0 0.0192324 0.00779642 0 0.000999297 0.000559465 0 7.97977e-06 0 0 74.304 0.00210161 0 0.000566764 0 0 0.000888688 8.7008e-05 0 0.0145504 -0.000372569 0 0.0205231 0.00161729 0 0.305026 0.016861 0 0.235635 -0.00534994 0 2.39869 -0.0448134 0 2.90058 0.0588075 0 17.2423 0.0361573 0 14.4955 -0.065002 0 60.9332 -0.001782 0 47.511 -0.0396333 0 
        </DataArray>
        <DataArray type="Float32" Name="gradRho" format="ascii">
35.7666 34.7994 50.8916 46.9096 35.2839 35.2217 48.0024 51.2075 40.8705 41.8926 54.9501 56.2062 21.0997 19.0833 36.7531 34.3295 11.3766 10.0049 42.8179 28.679 31.0974 41.8038 14.3527 11.4313 2.50557 1.88024 0.0261674 0.0923033 0.0939284 0.336833 1.87227 0.0683443 45.2347 41.8552 0.000789729 0.000503001 0.000341823 1.2114e-05 9.98493e-06 0.759571 0.759699 0.000210617 0.002702 0.0215528 0.111196 0.310111 0.310136 0.111539 0.0215125 0.00265965 0.000204086 8.41836e-05 0.701397 0.000318932 0.000396787 0.0061393 0.00731129 0.0854706 0.0747812 0.529337 0.585256 2.12554 1.99295 3.62061 3.5502 
        </DataArray>
      </CellData>
    </Piece>
  </UnstructuredGrid>
</VTKFile>
