<?xml version="1.0"?>
<VTKFile type="UnstructuredGrid" version="0.1" byte_order="LittleEndian">
  <UnstructuredGrid>
    <Piece NumberOfPoints="50" NumberOfCells="65">
      <Points>
        <DataArray type="Float32" NumberOfComponents="3" format="ascii">
          0 5 0 0 -5 0 15 0.2 0 15 -0.2 0 35 0.2 0 35 -0.2 0 2.14286 4.31429 0 4.28571 3.62857 0 6.42857 2.94286 0 8.57143 2.25714 0 10.7143 1.57143 0 12.8571 0.885714 0 17.8571 0.2 0 20.7143 0.2 0 23.5714 0.2 0 26.4286 0.2 0 29.2857 0.2 0 32.1429 0.2 0 32.1429 -0.2 0 29.2857 -0.2 0 26.4286 -0.2 0 23.5714 -0.2 0 20.7143 -0.2 0 17.8571 -0.2 0 12.8571 -0.885714 0 10.7143 -1.57143 0 8.57143 -2.25714 0 6.42857 -2.94286 0 4.28571 -3.62857 0 2.14286 -4.31429 0 0 -2.5 0 0 -6.16307e-12 0 0 2.5 0 3.95974 -5.7158e-13 0 13.9286 -3.66374e-15 0 6.61813 2.81487e-12 0 2.86365 2.0434 0 2.86365 -2.0434 0 9.43036 1.987e-12 0 11.3926 2.79508e-14 0 4.83116 1.72297 0 4.83116 -1.72297 0 1.90629 -3.21031e-12 0 33.5714 0 0 16.4286 -1.80625e-18 0 25 6.93889e-18 0 19.2857 -6.93889e-18 0 30.7143 0 0 22.1429 0 0 27.8571 0 0 
        </DataArray>
      </Points>
      <Cells>
        <DataArray type="Int32" Name="connectivity" format="ascii">
          8 9 35 26 27 35 8 35 40 27 41 35 30 42 37 32 36 42 33 40 35 33 35 41 29 30 37 6 36 32 30 31 42 31 32 42 0 6 32 30 29 1 26 35 38 9 38 35 6 7 36 28 29 37 7 40 36 33 41 37 33 36 40 28 37 41 9 10 38 25 26 38 33 42 36 33 37 42 11 34 24 24 25 39 10 11 39 25 38 39 10 39 38 11 24 39 27 28 41 7 8 40 2 34 11 3 24 34 2 3 34 2 44 12 3 23 44 4 17 43 5 43 18 12 46 13 13 48 14 14 45 15 15 49 16 16 47 17 18 47 19 19 49 20 20 45 21 21 48 22 22 46 23 2 3 44 4 43 5 12 44 23 12 23 46 13 46 22 13 22 48 14 21 45 14 48 21 15 45 20 15 20 49 16 19 47 16 49 19 17 18 43 17 47 18 
        </DataArray>
        <DataArray type="Int32" Name="offsets" format="ascii">
          3 6 9 12 15 18 21 24 27 30 33 36 39 42 45 48 51 54 57 60 63 66 69 72 75 78 81 84 87 90 93 96 99 102 105 108 111 114 117 120 123 126 129 132 135 138 141 144 147 150 153 156 159 162 165 168 171 174 177 180 183 186 189 192 195 
        </DataArray>
        <DataArray type="UInt8" Name="types" format="ascii">
          5 5 5 5 5 5 5 5 5 5 5 5 5 5 5 5 5 5 5 5 5 5 5 5 5 5 5 5 5 5 5 5 5 5 5 5 5 5 5 5 5 5 5 5 5 5 5 5 5 5 5 5 5 5 5 5 5 5 5 5 5 5 5 5 5 
        </DataArray>
      </Cells>
      <CellData>
        <DataArray type="Float32" Name="F0_Alpha_SG_co2liq_mod.xml" format="ascii">
1.66655e-10 1.65822e-10 1.62933e-10 1.6341e-10 1.65114e-10 1.65003e-10 1.63121e-10 1.62854e-10 1.63073e-10 1.63052e-10 1.67786e-10 1.67787e-10 1.60195e-10 1.60496e-10 1.70926e-10 1.70475e-10 1.62132e-10 1.6246e-10 1.61522e-10 1.61984e-10 1.62645e-10 1.61037e-10 1.72442e-10 1.72683e-10 1.6334e-10 1.63275e-10 1.72682e-10 1.72684e-10 1.72687e-10 1.72691e-10 1.72668e-10 1.72684e-10 1.61472e-10 1.61313e-10 1.72682e-10 1.72682e-10 1.72682e-10 1.72682e-10 1.72682e-10 1.734e-10 1.734e-10 1.72682e-10 1.72683e-10 1.72696e-10 1.72778e-10 1.7304e-10 1.7304e-10 1.72778e-10 1.72696e-10 1.72683e-10 1.72682e-10 1.72682e-10 1.73425e-10 1.72682e-10 1.72682e-10 1.72682e-10 1.72683e-10 1.72692e-10 1.72684e-10 1.72702e-10 1.72753e-10 1.72976e-10 1.72805e-10 1.7334e-10 1.73098e-10 
        </DataArray>
        <DataArray type="Float32" Name="F0_Density_SG_co2liq_mod.xml" format="ascii">
6239.31 6284.05 6456.86 6433.99 6526.04 6531.83 6522.42 6540.34 6657.89 6659.13 6347.93 6347.91 6859.44 6838.6 5999.48 6025.17 6682.54 6664.03 6674.81 6652.5 6616.48 6700.64 5912.1 5897.06 6591.76 6594.15 5897.12 5896.99 5896.81 5896.57 5898 5896.97 6601.73 6608.25 5897.13 5897.13 5897.13 5897.13 5897.13 5847.16 5847.16 5897.13 5897.05 5896.21 5890.94 5873.56 5873.56 5890.95 5896.21 5897.05 5897.13 5897.13 5841.52 5897.13 5897.13 5897.12 5897.08 5896.51 5897 5895.85 5892.56 5877.89 5889.24 5851.96 5869.49 
        </DataArray>
        <DataArray type="Float32" Name="F0_Temperature_SG_co2liq_mod.xml" format="ascii">
42.2829 42.3139 42.404 42.3942 42.4303 42.4324 42.4291 42.4352 42.4696 42.47 42.352 42.352 42.5092 42.5061 42.015 42.0564 42.4757 42.4712 42.4738 42.4683 42.4587 42.4799 41.8251 41.7805 42.4515 42.4522 41.7806 41.7802 41.7797 41.7789 41.7834 41.7802 42.4545 42.4563 41.7807 41.7807 41.7807 41.7807 41.7807 41.5782 41.5782 41.7807 41.7804 41.7778 41.7607 41.6984 41.6984 41.7607 41.7778 41.7804 41.7807 41.7807 41.5465 41.7807 41.7807 41.7806 41.7805 41.7787 41.7803 41.7766 41.766 41.7149 41.755 41.6032 41.6822 
        </DataArray>
        <DataArray type="Float32" Name="F0_Mass fraction_SG_co2liq_mod.xml" format="ascii">
4.35245e-09 4.11068e-09 3.29422e-09 3.34398e-09 2.29447e-09 2.28662e-09 2.71407e-09 2.66369e-09 2.06544e-09 2.06383e-09 2.74529e-09 2.74536e-09 1.78079e-09 1.80542e-09 6.88335e-09 6.45179e-09 2.10494e-09 2.12837e-09 2.22895e-09 2.24937e-09 2.29895e-09 2.1981e-09 9.01865e-09 9.59769e-09 2.29292e-09 2.29323e-09 9.59482e-09 9.60026e-09 9.60806e-09 9.61787e-09 9.55795e-09 9.60114e-09 2.60829e-09 2.6056e-09 9.59435e-09 9.59442e-09 9.59437e-09 9.59441e-09 9.59441e-09 1.26517e-08 1.26516e-08 9.59461e-09 9.59794e-09 9.63346e-09 9.86452e-09 1.0749e-08 1.07492e-08 9.86422e-09 9.63346e-09 9.59796e-09 9.59461e-09 9.5944e-09 1.3448e-08 9.59442e-09 9.59451e-09 9.59476e-09 9.59656e-09 9.62069e-09 9.59984e-09 9.6486e-09 9.79175e-09 1.05083e-08 9.94315e-09 1.22288e-08 1.09951e-08 
        </DataArray>
        <DataArray type="Float32" Name="F1_Alpha_SG_co2gas_mod.xml" format="ascii">
1 1 1 1 1 1 1 1 1 1 1 1 1 1 1 1 1 1 1 1 1 1 1 1 1 1 1 1 1 1 1 1 1 1 1 1 1 1 1 1 1 1 1 1 1 1 1 1 1 1 1 1 1 1 1 1 1 1 1 1 1 1 1 1 1 
        </DataArray>
        <DataArray type="Float32" Name="F1_Density_SG_co2gas_mod.xml" format="ascii">
238.903 253.494 319.358 314.409 469.625 471.338 392.011 399.867 525.66 526.099 387.972 387.962 617.057 607.932 148.977 159.202 514.719 508.672 483.693 479.068 468.098 490.904 113.043 106.101 469.576 469.493 106.133 106.072 105.984 105.874 106.55 106.062 408.695 409.118 106.138 106.138 106.138 106.138 106.138 80.1393 80.1397 106.135 106.098 105.7 103.181 94.5538 94.5525 103.184 105.7 106.098 106.135 106.138 75.3317 106.138 106.136 106.134 106.113 105.843 106.077 105.531 103.961 96.7556 102.351 82.9497 92.4041 
        </DataArray>
        <DataArray type="Float32" Name="F1_Temperature_SG_co2gas_mod.xml" format="ascii">
490.362 494.072 488.112 483.051 357.594 358.425 426.79 426.178 362.713 362.813 352.279 352.279 364.535 364.211 480.291 481.849 378.62 376.893 400.17 396.061 392.129 403.288 468.392 466.399 381.833 382.777 466.384 466.368 466.345 466.316 466.5 466.365 442.916 445.202 466.385 466.385 466.385 466.385 466.385 459.246 459.246 466.385 466.375 466.27 465.602 463.27 463.264 465.602 466.27 466.375 466.385 466.385 466.917 466.385 466.385 466.384 466.379 466.307 466.369 466.226 465.808 463.85 465.408 459.876 462.929 
        </DataArray>
        <DataArray type="Float32" Name="F1_Mass fraction_SG_co2gas_mod.xml" format="ascii">
1 1 1 1 1 1 1 1 1 1 1 1 1 1 1 1 1 1 1 1 1 1 1 1 1 1 1 1 1 1 1 1 1 1 1 1 1 1 1 1 1 1 1 1 1 1 1 1 1 1 1 1 1 1 1 1 1 1 1 1 1 1 1 1 1 
        </DataArray>
        <DataArray type="Float32" Name="Density_Mixture" format="ascii">
238.903 253.494 319.358 314.409 469.625 471.338 392.011 399.867 525.66 526.099 387.972 387.962 617.057 607.932 148.977 159.202 514.719 508.672 483.693 479.068 468.098 490.904 113.043 106.101 469.576 469.493 106.133 106.072 105.984 105.874 106.55 106.062 408.695 409.118 106.138 106.138 106.138 106.138 106.138 80.1393 80.1397 106.135 106.098 105.7 103.181 94.5538 94.5525 103.184 105.7 106.098 106.135 106.138 75.3317 106.138 106.136 106.134 106.113 105.843 106.077 105.531 103.961 96.7556 102.351 82.9497 92.4041 
        </DataArray>
        <DataArray type="Float32" Name="Pressure_Mixture" format="ascii">
1.60537e+07 1.72243e+07 2.16546e+07 2.10752e+07 2.33974e+07 2.35426e+07 2.33065e+07 2.37559e+07 2.6684e+07 2.67146e+07 1.88771e+07 1.88766e+07 3.16401e+07 3.11306e+07 9.46049e+06 1.02065e+07 2.72941e+07 2.68359e+07 2.71027e+07 2.65504e+07 2.56561e+07 2.77413e+07 6.77034e+06 6.26957e+06 2.50407e+07 2.51002e+07 6.27152e+06 6.26714e+06 6.26088e+06 6.25302e+06 6.30141e+06 6.26643e+06 2.52891e+07 2.54514e+07 6.2719e+06 6.27184e+06 6.27188e+06 6.27185e+06 6.27185e+06 4.43581e+06 4.43584e+06 6.27169e+06 6.26901e+06 6.24055e+06 6.06075e+06 5.44805e+06 5.44788e+06 6.06096e+06 6.24055e+06 6.269e+06 6.27169e+06 6.27186e+06 4.20011e+06 6.27184e+06 6.27177e+06 6.27157e+06 6.27012e+06 6.25076e+06 6.26748e+06 6.2285e+06 6.11638e+06 5.60366e+06 6.00198e+06 4.62999e+06 5.29949e+06 
        </DataArray>
        <DataArray type="Float32" Name="Velocity_Mixture" NumberOfComponents="3" format="ascii">
227.399 -37.4899 0 217.848 63.1852 0 269.606 -45.629 0 273.794 49.8783 0 318.72 32.5889 0 318.496 -34.0286 0 297.992 -18.0965 0 298.588 28.9666 0 300.694 53.4259 0 300.908 -53.919 0 343.801 0.0506425 0 343.805 -0.0476626 0 266.96 -43.1352 0 268.216 46.7129 0 80.1321 22.4978 0 115.908 -27.7092 0 291.917 -73.2639 0 296.173 77.1203 0 295.455 -75.109 0 290.984 48.3154 0 299.342 -43.1067 0 290.064 86.321 0 16.1527 0.0289665 0 0.369904 -0.277355 0 306.685 -18.761 0 306.04 17.657 0 -0.0123369 -0.00173565 0 -0.0754978 0.0260855 0 -0.48302 -0.0270389 0 -0.656659 -0.112414 0 1.09497 -0.499832 0 -0.13709 0.186885 0 292.214 88.9495 0 292.462 -77.728 0 0.000962719 -0.000430444 0 -0.000465295 0.000666003 0 0.000308877 -0.000516309 0 3.83691e-06 -3.02298e-05 0 9.06038e-06 3.16477e-05 0 39.9442 -0.537219 0 39.9487 0.538766 0 0.00116195 -0.000691231 0 0.0216437 -0.00921803 0 0.261008 -0.0737428 0 2.07572 -0.320515 0 10.7919 -0.667292 0 10.7776 0.655816 0 2.0883 0.314737 0 0.270158 0.070331 0 0.0227667 0.00888351 0 0.00124913 0.000671252 0 4.00722e-05 0 0 74.9747 0.00201697 0 0.00074022 -5.40267e-06 0 0.00114014 0.00010925 0 0.0177707 -0.000450424 0 0.0247949 0.00188268 0 0.350968 0.0185476 0 0.273397 -0.00610044 0 2.65327 -0.0474196 0 3.19251 0.0549863 0 18.2569 0.0332415 0 15.3609 -0.0558626 0 62.2981 -0.00172145 0 48.5525 -0.0364373 0 
        </DataArray>
        <DataArray type="Float32" Name="gradRho" format="ascii">
36.6169 35.5692 50.3037 45.8539 36.3582 36.2461 45.7664 48.9429 41.235 42.196 56.7102 57.9048 21.4741 19.4235 41.0835 37.7399 10.3378 9.19955 40.5363 26.5674 28.8826 39.6706 17.0955 14.5714 1.07767 3.22713 0.0337429 0.0729776 0.203795 0.270997 2.61434 0.0539467 43.3935 40.1418 0.00245509 0.0020392 0.000516574 1.42921e-05 1.20571e-05 0.752311 0.752433 0.00025017 0.00305595 0.02344 0.116792 0.313973 0.314002 0.116984 0.0234442 0.00301223 0.000242902 0.000150519 0.693157 0.000398558 0.000492709 0.00726118 0.00860777 0.0956196 0.083939 0.565699 0.624324 2.16992 2.03817 3.57916 3.51562 
        </DataArray>
      </CellData>
    </Piece>
  </UnstructuredGrid>
</VTKFile>
