<?xml version="1.0"?>
<VTKFile type="UnstructuredGrid" version="0.1" byte_order="LittleEndian">
  <UnstructuredGrid>
    <Piece NumberOfPoints="50" NumberOfCells="65">
      <Points>
        <DataArray type="Float32" NumberOfComponents="3" format="ascii">
          0 5 0 0 -5 0 15 0.2 0 15 -0.2 0 35 0.2 0 35 -0.2 0 2.14286 4.31429 0 4.28571 3.62857 0 6.42857 2.94286 0 8.57143 2.25714 0 10.7143 1.57143 0 12.8571 0.885714 0 17.8571 0.2 0 20.7143 0.2 0 23.5714 0.2 0 26.4286 0.2 0 29.2857 0.2 0 32.1429 0.2 0 32.1429 -0.2 0 29.2857 -0.2 0 26.4286 -0.2 0 23.5714 -0.2 0 20.7143 -0.2 0 17.8571 -0.2 0 12.8571 -0.885714 0 10.7143 -1.57143 0 8.57143 -2.25714 0 6.42857 -2.94286 0 4.28571 -3.62857 0 2.14286 -4.31429 0 0 -2.5 0 0 -6.16307e-12 0 0 2.5 0 3.95974 -5.7158e-13 0 13.9286 -3.66374e-15 0 6.61813 2.81487e-12 0 2.86365 2.0434 0 2.86365 -2.0434 0 9.43036 1.987e-12 0 11.3926 2.79508e-14 0 4.83116 1.72297 0 4.83116 -1.72297 0 1.90629 -3.21031e-12 0 33.5714 0 0 16.4286 -1.80625e-18 0 25 6.93889e-18 0 19.2857 -6.93889e-18 0 30.7143 0 0 22.1429 0 0 27.8571 0 0 
        </DataArray>
      </Points>
      <Cells>
        <DataArray type="Int32" Name="connectivity" format="ascii">
          8 9 35 26 27 35 8 35 40 27 41 35 30 42 37 32 36 42 33 40 35 33 35 41 29 30 37 6 36 32 30 31 42 31 32 42 0 6 32 30 29 1 26 35 38 9 38 35 6 7 36 28 29 37 7 40 36 33 41 37 33 36 40 28 37 41 9 10 38 25 26 38 33 42 36 33 37 42 11 34 24 24 25 39 10 11 39 25 38 39 10 39 38 11 24 39 27 28 41 7 8 40 2 34 11 3 24 34 2 3 34 2 44 12 3 23 44 4 17 43 5 43 18 12 46 13 13 48 14 14 45 15 15 49 16 16 47 17 18 47 19 19 49 20 20 45 21 21 48 22 22 46 23 2 3 44 4 43 5 12 44 23 12 23 46 13 46 22 13 22 48 14 21 45 14 48 21 15 45 20 15 20 49 16 19 47 16 49 19 17 18 43 17 47 18 
        </DataArray>
        <DataArray type="Int32" Name="offsets" format="ascii">
          3 6 9 12 15 18 21 24 27 30 33 36 39 42 45 48 51 54 57 60 63 66 69 72 75 78 81 84 87 90 93 96 99 102 105 108 111 114 117 120 123 126 129 132 135 138 141 144 147 150 153 156 159 162 165 168 171 174 177 180 183 186 189 192 195 
        </DataArray>
        <DataArray type="UInt8" Name="types" format="ascii">
          5 5 5 5 5 5 5 5 5 5 5 5 5 5 5 5 5 5 5 5 5 5 5 5 5 5 5 5 5 5 5 5 5 5 5 5 5 5 5 5 5 5 5 5 5 5 5 5 5 5 5 5 5 5 5 5 5 5 5 5 5 5 5 5 5 
        </DataArray>
      </Cells>
      <CellData>
        <DataArray type="Float32" Name="F0_Alpha_SG_co2liq_mod.xml" format="ascii">
1.72682e-10 1.72682e-10 1.72682e-10 1.72682e-10 1.70488e-10 1.70492e-10 1.72682e-10 1.72682e-10 1.71007e-10 1.71053e-10 1.68843e-10 1.68842e-10 1.68357e-10 1.68388e-10 1.72682e-10 1.72682e-10 1.72606e-10 1.72587e-10 1.72684e-10 1.7268e-10 1.7268e-10 1.7269e-10 1.72682e-10 1.72682e-10 1.72615e-10 1.72613e-10 1.72682e-10 1.72682e-10 1.72682e-10 1.72682e-10 1.72682e-10 1.72682e-10 1.72682e-10 1.72683e-10 1.72682e-10 1.72682e-10 1.72682e-10 1.72682e-10 1.72682e-10 1.7285e-10 1.7285e-10 1.72682e-10 1.72682e-10 1.72682e-10 1.72682e-10 1.72684e-10 1.72684e-10 1.72682e-10 1.72682e-10 1.72682e-10 1.72682e-10 1.72682e-10 1.72967e-10 1.72682e-10 1.72682e-10 1.72682e-10 1.72682e-10 1.72682e-10 1.72682e-10 1.72682e-10 1.72682e-10 1.72683e-10 1.72682e-10 1.72764e-10 1.72689e-10 
        </DataArray>
        <DataArray type="Float32" Name="F0_Density_SG_co2liq_mod.xml" format="ascii">
5897.13 5897.13 5897.13 5897.13 6043.03 6042.79 5897.13 5897.13 6008.89 6005.83 6209.78 6209.87 6232.88 6230.63 5897.13 5897.13 5901.78 5903 5896.98 5897.28 5897.27 5896.6 5897.13 5897.13 5901.08 5901.22 5897.13 5897.13 5897.13 5897.13 5897.13 5897.13 5897.1 5897.08 5897.13 5897.13 5897.13 5897.13 5897.13 5886.24 5886.24 5897.13 5897.13 5897.13 5897.13 5896.99 5896.98 5897.13 5897.13 5897.13 5897.13 5897.13 5876.72 5897.13 5897.13 5897.13 5897.13 5897.13 5897.13 5897.13 5897.13 5897.1 5897.13 5891.9 5896.7 
        </DataArray>
        <DataArray type="Float32" Name="F0_Temperature_SG_co2liq_mod.xml" format="ascii">
41.7807 41.7807 41.7807 41.7807 42.0827 42.0823 41.7807 41.7807 42.0307 42.0257 42.2602 42.2603 42.2781 42.2764 41.7807 41.7807 41.795 41.7987 41.7802 41.7811 41.7811 41.779 41.7807 41.7807 41.7929 41.7933 41.7807 41.7807 41.7807 41.7807 41.7807 41.7807 41.7806 41.7805 41.7807 41.7807 41.7807 41.7807 41.7807 41.7448 41.7448 41.7807 41.7807 41.7807 41.7807 41.7802 41.7802 41.7807 41.7807 41.7807 41.7807 41.7807 41.7105 41.7807 41.7807 41.7807 41.7807 41.7807 41.7807 41.7807 41.7807 41.7806 41.7807 41.7639 41.7793 
        </DataArray>
        <DataArray type="Float32" Name="F0_Mass fraction_SG_co2liq_mod.xml" format="ascii">
9.5944e-09 9.5944e-09 9.59449e-09 9.59437e-09 5.80425e-09 5.80737e-09 9.59451e-09 9.59448e-09 6.37499e-09 6.43268e-09 3.65172e-09 3.65126e-09 3.57988e-09 3.59335e-09 9.5944e-09 9.5944e-09 9.41078e-09 9.36321e-09 9.6008e-09 9.58832e-09 9.58874e-09 9.6167e-09 9.5944e-09 9.5944e-09 9.44498e-09 9.43972e-09 9.5944e-09 9.5944e-09 9.5944e-09 9.5944e-09 9.5944e-09 9.5944e-09 9.59577e-09 9.59641e-09 9.5944e-09 9.5944e-09 9.5944e-09 9.5944e-09 9.5944e-09 1.00843e-08 1.00843e-08 9.5944e-09 9.5944e-09 9.5944e-09 9.59441e-09 9.60012e-09 9.60062e-09 9.59442e-09 9.5944e-09 9.5944e-09 9.5944e-09 9.5944e-09 1.06703e-08 9.5944e-09 9.5944e-09 9.5944e-09 9.5944e-09 9.5944e-09 9.5944e-09 9.5944e-09 9.5944e-09 9.59584e-09 9.59447e-09 9.82131e-09 9.61241e-09 
        </DataArray>
        <DataArray type="Float32" Name="F1_Alpha_SG_co2gas_mod.xml" format="ascii">
1 1 1 1 1 1 1 1 1 1 1 1 1 1 1 1 1 1 1 1 1 1 1 1 1 1 1 1 1 1 1 1 1 1 1 1 1 1 1 1 1 1 1 1 1 1 1 1 1 1 1 1 1 1 1 1 1 1 1 1 1 1 1 1 1 
        </DataArray>
        <DataArray type="Float32" Name="F1_Density_SG_co2gas_mod.xml" format="ascii">
106.138 106.138 106.137 106.138 177.501 177.403 106.137 106.137 161.187 159.703 287.119 287.157 293.124 291.974 106.138 106.138 108.247 108.807 106.066 106.206 106.202 105.887 106.138 106.138 107.847 107.909 106.138 106.138 106.138 106.138 106.138 106.138 106.122 106.115 106.138 106.138 106.138 106.138 106.138 100.893 100.893 106.138 106.138 106.138 106.138 106.073 106.068 106.138 106.138 106.138 106.138 106.138 95.2624 106.138 106.138 106.138 106.138 106.138 106.138 106.138 106.138 106.122 106.137 103.643 105.935 
        </DataArray>
        <DataArray type="Float32" Name="F1_Temperature_SG_co2gas_mod.xml" format="ascii">
466.385 466.385 466.385 466.385 452.068 452.049 466.385 466.385 455.718 456.091 389.232 389.236 395.662 395.815 466.385 466.385 467.304 467.487 466.367 466.404 466.403 466.32 466.385 466.385 467.538 467.571 466.385 466.385 466.385 466.385 466.385 466.385 466.381 466.379 466.385 466.385 466.385 466.385 466.385 465.015 465.015 466.385 466.385 466.385 466.385 466.368 466.367 466.385 466.385 466.385 466.385 466.385 468.084 466.385 466.385 466.385 466.385 466.385 466.385 466.385 466.385 466.381 466.385 465.727 466.333 
        </DataArray>
        <DataArray type="Float32" Name="F1_Mass fraction_SG_co2gas_mod.xml" format="ascii">
1 1 1 1 1 1 1 1 1 1 1 1 1 1 1 1 1 1 1 1 1 1 1 1 1 1 1 1 1 1 1 1 1 1 1 1 1 1 1 1 1 1 1 1 1 1 1 1 1 1 1 1 1 1 1 1 1 1 1 1 1 1 1 1 1 
        </DataArray>
        <DataArray type="Float32" Name="Density_Mixture" format="ascii">
106.138 106.138 106.137 106.138 177.501 177.403 106.137 106.137 161.187 159.703 287.119 287.157 293.124 291.974 106.138 106.138 108.247 108.807 106.066 106.206 106.202 105.887 106.138 106.138 107.847 107.909 106.138 106.138 106.138 106.138 106.138 106.138 106.122 106.115 106.138 106.138 106.138 106.138 106.138 100.893 100.893 106.138 106.138 106.138 106.138 106.073 106.068 106.138 106.138 106.138 106.138 106.138 95.2624 106.138 106.138 106.138 106.138 106.138 106.138 106.138 106.138 106.122 106.137 103.643 105.935 
        </DataArray>
        <DataArray type="Float32" Name="Pressure_Mixture" format="ascii">
6.27186e+06 6.27186e+06 6.27179e+06 6.27188e+06 1.07171e+07 1.07102e+07 6.27177e+06 6.2718e+06 9.73569e+06 9.64652e+06 1.52739e+07 1.52762e+07 1.58844e+07 1.58251e+07 6.27186e+06 6.27186e+06 6.42845e+06 6.46918e+06 6.26672e+06 6.27677e+06 6.27643e+06 6.25397e+06 6.27186e+06 6.27186e+06 6.40513e+06 6.40977e+06 6.27186e+06 6.27186e+06 6.27186e+06 6.27186e+06 6.27186e+06 6.27186e+06 6.27076e+06 6.27024e+06 6.27186e+06 6.27186e+06 6.27186e+06 6.27186e+06 6.27186e+06 5.89819e+06 5.89819e+06 6.27186e+06 6.27186e+06 6.27186e+06 6.27185e+06 6.26726e+06 6.26685e+06 6.27184e+06 6.27186e+06 6.27186e+06 6.27186e+06 6.27186e+06 5.56184e+06 6.27186e+06 6.27186e+06 6.27186e+06 6.27186e+06 6.27186e+06 6.27186e+06 6.27186e+06 6.27186e+06 6.2707e+06 6.2718e+06 6.09372e+06 6.2574e+06 
        </DataArray>
        <DataArray type="Float32" Name="Velocity_Mixture" NumberOfComponents="3" format="ascii">
0 0 0 2.27176e-05 0 0 -0.00163196 0.00184168 0 0.000411804 0.000764445 0 148.357 -19.6688 0 148.553 20.287 0 -0.00255962 0.00136309 0 -0.00193218 -0.000948369 0 122.785 35.5952 0 121.889 -30.5413 0 295.465 1.33396 0 295.434 -1.35665 0 277.507 -22.7645 0 271.066 42.2756 0 0 0 0 0 0 0 4.9007 -0.0612001 0 5.0322 0.93747 0 -0.12928 0.135161 0 0.166805 -0.103698 0 0.156518 0.121843 0 -0.486016 -0.446431 0 0 0 0 0 0 0 5.19201 -1.57662 0 5.35432 1.70664 0 0 0 0 0 0 0 0 0 0 0 0 0 0 0 0 0 0 0 -0.0279858 0.00275094 0 -0.0553421 -0.0113667 0 0 0 0 0 0 0 0 0 0 0 0 0 0 0 0 2.77333 -1.49689 0 2.77333 1.49689 0 0 0 0 0 0 0 0 0 0 4.88339e-05 -0.00017215 0 0.0244414 -0.048496 0 0.0293346 0.049578 0 6.5453e-05 0.000196552 0 0 0 0 0 0 0 0 0 0 0 0 0 23.6522 0 0 0 0 0 0 0 0 0 0 0 0 0 0 0 0 0 0 0 0 0 0 0 6.06674e-06 0 0 0.00979125 0.00229185 0 0.00268569 -0.000106855 0 1.72019 -1.07617e-05 0 0.786828 -0.0326872 0 
        </DataArray>
        <DataArray type="Float32" Name="gradRho" format="ascii">
0.000280914 8.27709e-05 0.00670089 0.00457908 54.4743 54.6224 0.0249993 0.0265764 47.285 47.4344 76.1342 76.2217 31.4993 30.8776 3.20009e-06 9.6328e-07 17.4219 17.8653 0.632972 0.645932 0.595541 0.759344 1.22564e-08 1.89062e-08 24.3861 24.4259 0 0 0 1.12383e-10 0 0 0.0840994 0.020155 0 0 0 0 0 0.956719 0.956719 0 6.48246e-11 1.48492e-07 0.000137411 0.0267513 0.0242647 0.000123134 1.32721e-07 6.48246e-11 0 0 0.811822 0 0 0 0 2.06489e-08 5.44548e-09 7.74119e-06 2.70888e-05 0.0106992 0.00544451 1.06672 0.815479 
        </DataArray>
      </CellData>
    </Piece>
  </UnstructuredGrid>
</VTKFile>
