<?xml version="1.0"?>
<VTKFile type="UnstructuredGrid" version="0.1" byte_order="LittleEndian">
  <UnstructuredGrid>
    <Piece NumberOfPoints="50" NumberOfCells="65">
      <Points>
        <DataArray type="Float32" NumberOfComponents="3" format="ascii">
          0 5 0 0 -5 0 15 0.2 0 15 -0.2 0 35 0.2 0 35 -0.2 0 2.14286 4.31429 0 4.28571 3.62857 0 6.42857 2.94286 0 8.57143 2.25714 0 10.7143 1.57143 0 12.8571 0.885714 0 17.8571 0.2 0 20.7143 0.2 0 23.5714 0.2 0 26.4286 0.2 0 29.2857 0.2 0 32.1429 0.2 0 32.1429 -0.2 0 29.2857 -0.2 0 26.4286 -0.2 0 23.5714 -0.2 0 20.7143 -0.2 0 17.8571 -0.2 0 12.8571 -0.885714 0 10.7143 -1.57143 0 8.57143 -2.25714 0 6.42857 -2.94286 0 4.28571 -3.62857 0 2.14286 -4.31429 0 0 -2.5 0 0 -6.16307e-12 0 0 2.5 0 3.95974 -5.7158e-13 0 13.9286 -3.66374e-15 0 6.61813 2.81487e-12 0 2.86365 2.0434 0 2.86365 -2.0434 0 9.43036 1.987e-12 0 11.3926 2.79508e-14 0 4.83116 1.72297 0 4.83116 -1.72297 0 1.90629 -3.21031e-12 0 33.5714 0 0 16.4286 -1.80625e-18 0 25 6.93889e-18 0 19.2857 -6.93889e-18 0 30.7143 0 0 22.1429 0 0 27.8571 0 0 
        </DataArray>
      </Points>
      <Cells>
        <DataArray type="Int32" Name="connectivity" format="ascii">
          8 9 35 26 27 35 8 35 40 27 41 35 30 42 37 32 36 42 33 40 35 33 35 41 29 30 37 6 36 32 30 31 42 31 32 42 0 6 32 30 29 1 26 35 38 9 38 35 6 7 36 28 29 37 7 40 36 33 41 37 33 36 40 28 37 41 9 10 38 25 26 38 33 42 36 33 37 42 11 34 24 24 25 39 10 11 39 25 38 39 10 39 38 11 24 39 27 28 41 7 8 40 2 34 11 3 24 34 2 3 34 2 44 12 3 23 44 4 17 43 5 43 18 12 46 13 13 48 14 14 45 15 15 49 16 16 47 17 18 47 19 19 49 20 20 45 21 21 48 22 22 46 23 2 3 44 4 43 5 12 44 23 12 23 46 13 46 22 13 22 48 14 21 45 14 48 21 15 45 20 15 20 49 16 19 47 16 49 19 17 18 43 17 47 18 
        </DataArray>
        <DataArray type="Int32" Name="offsets" format="ascii">
          3 6 9 12 15 18 21 24 27 30 33 36 39 42 45 48 51 54 57 60 63 66 69 72 75 78 81 84 87 90 93 96 99 102 105 108 111 114 117 120 123 126 129 132 135 138 141 144 147 150 153 156 159 162 165 168 171 174 177 180 183 186 189 192 195 
        </DataArray>
        <DataArray type="UInt8" Name="types" format="ascii">
          5 5 5 5 5 5 5 5 5 5 5 5 5 5 5 5 5 5 5 5 5 5 5 5 5 5 5 5 5 5 5 5 5 5 5 5 5 5 5 5 5 5 5 5 5 5 5 5 5 5 5 5 5 5 5 5 5 5 5 5 5 5 5 5 5 
        </DataArray>
      </Cells>
      <CellData>
        <DataArray type="Float32" Name="F0_Alpha_SG_co2liq_mod.xml" format="ascii">
1.72682e-10 1.72682e-10 1.72683e-10 1.72682e-10 1.67481e-10 1.67526e-10 1.72681e-10 1.7268e-10 1.68349e-10 1.6825e-10 1.6797e-10 1.6797e-10 1.6631e-10 1.66468e-10 1.72682e-10 1.72682e-10 1.71676e-10 1.712e-10 1.72543e-10 1.72426e-10 1.72411e-10 1.72714e-10 1.72682e-10 1.72682e-10 1.7148e-10 1.71468e-10 1.72682e-10 1.72682e-10 1.72682e-10 1.72682e-10 1.72682e-10 1.72682e-10 1.72694e-10 1.72682e-10 1.72682e-10 1.72682e-10 1.72682e-10 1.72682e-10 1.72682e-10 1.72992e-10 1.72992e-10 1.72682e-10 1.72682e-10 1.72682e-10 1.72682e-10 1.727e-10 1.727e-10 1.72682e-10 1.72682e-10 1.72682e-10 1.72682e-10 1.72682e-10 1.73079e-10 1.72682e-10 1.72682e-10 1.72682e-10 1.72682e-10 1.72682e-10 1.72682e-10 1.72682e-10 1.72682e-10 1.7269e-10 1.72683e-10 1.72897e-10 1.72715e-10 
        </DataArray>
        <DataArray type="Float32" Name="F0_Density_SG_co2liq_mod.xml" format="ascii">
5897.13 5897.13 5897.09 5897.12 6254.57 6252 5897.21 5897.24 6193.66 6197.91 6297.9 6297.93 6395.66 6385.38 5897.13 5897.13 5958.47 5986.8 5905.84 5913.06 5913.94 5895.06 5897.13 5897.13 5969.03 5969.72 5897.13 5897.13 5897.13 5897.13 5897.13 5897.13 5896.37 5897.13 5897.13 5897.13 5897.13 5897.13 5897.13 5876.82 5876.82 5897.13 5897.13 5897.13 5897.11 5896.01 5896 5897.11 5897.13 5897.13 5897.13 5897.13 5868.18 5897.13 5897.13 5897.13 5897.13 5897.13 5897.13 5897.13 5897.12 5896.6 5897.08 5883.2 5895.01 
        </DataArray>
        <DataArray type="Float32" Name="F0_Temperature_SG_co2liq_mod.xml" format="ascii">
41.7807 41.7807 41.7806 41.7807 42.2939 42.2921 41.7809 41.781 42.2469 42.2505 42.3227 42.3227 42.3766 42.3715 41.7807 41.7807 41.9374 41.9927 41.8072 41.8278 41.8302 41.7741 41.7807 41.7807 41.9589 41.9603 41.7807 41.7807 41.7807 41.7807 41.7807 41.7807 41.7783 41.7807 41.7807 41.7807 41.7807 41.7807 41.7807 41.7109 41.7109 41.7807 41.7807 41.7807 41.7806 41.7771 41.7771 41.7806 41.7807 41.7807 41.7807 41.7807 41.6768 41.7807 41.7807 41.7807 41.7807 41.7807 41.7807 41.7807 41.7807 41.779 41.7805 41.7342 41.774 
        </DataArray>
        <DataArray type="Float32" Name="F0_Mass fraction_SG_co2liq_mod.xml" format="ascii">
9.59448e-09 9.59436e-09 9.59596e-09 9.59469e-09 3.69191e-09 3.70396e-09 9.5909e-09 9.5899e-09 4.11135e-09 4.0996e-09 3.07108e-09 3.07099e-09 2.77873e-09 2.81042e-09 9.5944e-09 9.59441e-09 7.65966e-09 7.03524e-09 9.24718e-09 8.98644e-09 8.95513e-09 9.68283e-09 9.5944e-09 9.5944e-09 7.44754e-09 7.43247e-09 9.5944e-09 9.5944e-09 9.5944e-09 9.5944e-09 9.5944e-09 9.5944e-09 9.62634e-09 9.59445e-09 9.5944e-09 9.5944e-09 9.5944e-09 9.5944e-09 9.5944e-09 1.05678e-08 1.05678e-08 9.5944e-09 9.5944e-09 9.5944e-09 9.59515e-09 9.64183e-09 9.64238e-09 9.59519e-09 9.59441e-09 9.5944e-09 9.5944e-09 9.5944e-09 1.12287e-08 9.5944e-09 9.5944e-09 9.5944e-09 9.5944e-09 9.5944e-09 9.5944e-09 9.59442e-09 9.59464e-09 9.61659e-09 9.59639e-09 1.02332e-08 9.68475e-09 
        </DataArray>
        <DataArray type="Float32" Name="F1_Alpha_SG_co2gas_mod.xml" format="ascii">
1 1 1 1 1 1 1 1 1 1 1 1 1 1 1 1 1 1 1 1 1 1 1 1 1 1 1 1 1 1 1 1 1 1 1 1 1 1 1 1 1 1 1 1 1 1 1 1 1 1 1 1 1 1 1 1 1 1 1 1 1 1 1 1 1 
        </DataArray>
        <DataArray type="Float32" Name="F1_Density_SG_co2gas_mod.xml" format="ascii">
106.137 106.138 106.12 106.134 283.734 282.771 106.177 106.188 253.614 254.366 344.458 344.468 382.787 378.221 106.138 106.138 133.547 145.687 110.197 113.456 113.86 105.151 106.138 106.138 137.437 137.722 106.138 106.138 106.138 106.138 106.138 106.138 105.779 106.137 106.138 106.138 106.138 106.138 106.138 96.2019 96.2019 106.138 106.138 106.138 106.129 105.606 105.6 106.129 106.138 106.138 106.138 106.138 90.4521 106.138 106.138 106.138 106.138 106.138 106.138 106.138 106.135 105.888 106.115 99.4004 105.13 
        </DataArray>
        <DataArray type="Float32" Name="F1_Temperature_SG_co2gas_mod.xml" format="ascii">
466.385 466.385 466.381 466.384 422.649 422.439 466.396 466.399 428.967 430.781 370.83 370.832 379.142 378.919 466.385 466.385 472.276 473.396 467.532 468.596 468.684 466.137 466.385 466.385 475.055 475.112 466.385 466.385 466.385 466.385 466.385 466.385 466.291 466.385 466.385 466.385 466.385 466.385 466.385 463.763 463.762 466.385 466.385 466.385 466.383 466.245 466.244 466.383 466.385 466.385 466.385 466.385 469.212 466.385 466.385 466.385 466.385 466.385 466.385 466.385 466.385 466.32 466.379 464.587 466.129 
        </DataArray>
        <DataArray type="Float32" Name="F1_Mass fraction_SG_co2gas_mod.xml" format="ascii">
1 1 1 1 1 1 1 1 1 1 1 1 1 1 1 1 1 1 1 1 1 1 1 1 1 1 1 1 1 1 1 1 1 1 1 1 1 1 1 1 1 1 1 1 1 1 1 1 1 1 1 1 1 1 1 1 1 1 1 1 1 1 1 1 1 
        </DataArray>
        <DataArray type="Float32" Name="Density_Mixture" format="ascii">
106.137 106.138 106.12 106.134 283.734 282.771 106.177 106.188 253.614 254.366 344.458 344.468 382.787 378.221 106.138 106.138 133.547 145.687 110.197 113.456 113.86 105.151 106.138 106.138 137.437 137.722 106.138 106.138 106.138 106.138 106.138 106.138 105.779 106.137 106.138 106.138 106.138 106.138 106.138 96.2019 96.2019 106.138 106.138 106.138 106.129 105.606 105.6 106.129 106.138 106.138 106.138 106.138 90.4521 106.138 106.138 106.138 106.138 106.138 106.138 106.138 106.135 105.888 106.115 99.4004 105.13 
        </DataArray>
        <DataArray type="Float32" Name="Pressure_Mixture" format="ascii">
6.27179e+06 6.27189e+06 6.2706e+06 6.27162e+06 1.64544e+07 1.63869e+07 6.27468e+06 6.27548e+06 1.48453e+07 1.49587e+07 1.75845e+07 1.75852e+07 2.00999e+07 1.98374e+07 6.27186e+06 6.27185e+06 8.23408e+06 9.0867e+06 6.5639e+06 6.80165e+06 6.83048e+06 6.20155e+06 6.27186e+06 6.27186e+06 8.55496e+06 8.57568e+06 6.27186e+06 6.27186e+06 6.27186e+06 6.27186e+06 6.27186e+06 6.27186e+06 6.24624e+06 6.27182e+06 6.27186e+06 6.27186e+06 6.27186e+06 6.27186e+06 6.27186e+06 5.56531e+06 5.5653e+06 6.27186e+06 6.27186e+06 6.27185e+06 6.27126e+06 6.23388e+06 6.23344e+06 6.27123e+06 6.27185e+06 6.27186e+06 6.27186e+06 6.27186e+06 5.251e+06 6.27186e+06 6.27186e+06 6.27186e+06 6.27186e+06 6.27186e+06 6.27186e+06 6.27185e+06 6.27167e+06 6.25404e+06 6.27025e+06 5.79164e+06 6.19999e+06 
        </DataArray>
        <DataArray type="Float32" Name="Velocity_Mixture" NumberOfComponents="3" format="ascii">
-0.00241684 -9.1277e-06 0 0.000855959 0.000181399 0 -0.0286354 0.0330613 0 -0.00492879 -0.00423315 0 251.393 -10.9326 0 252.133 12.5957 0 0.0936034 -0.0347759 0 0.115938 0.0512058 0 235.989 46.2586 0 232.659 -38.7438 0 328.703 0.5359 0 328.698 -0.538245 0 303.412 -36.7886 0 298.856 52.301 0 6.56396e-05 6.05071e-05 0 -0.000127795 9.83667e-05 0 69.7953 -2.58258 0 66.7293 26.2461 0 9.64425 -3.47682 0 18.8163 -5.47578 0 18.5498 5.157 0 -2.15861 -6.1051 0 0 0 0 0 0 0 79.7005 -14.5563 0 80.5224 15.7638 0 0 0 0 0 0 0 0 0 0 0 0 0 0 0 0 0 0 0 -0.536936 -0.146284 0 -0.193921 -0.121751 0 0 0 0 0 0 0 0 0 0 0 0 0 0 0 0 6.46522 -1.38538 0 6.46485 1.38592 0 0 0 0 0 0 0 2.74124e-06 -3.90786e-05 0 0.00340408 -0.00515216 0 0.241877 -0.198243 0 0.266436 0.190082 0 0.00391095 0.00518431 0 7.60018e-06 4.31464e-05 0 0 0 0 0 0 0 0 0 0 38.2872 9.27228e-05 0 0 0 0 0 0 0 0 0 0 0 0 0 0 0 0 0 0 0 0.000630694 -1.86417e-05 0 0.00171668 0.000335716 0 0.179787 0.0307569 0 0.0909123 -0.00326759 0 6.73886 -0.00152732 0 4.52115 -0.145394 0 
        </DataArray>
        <DataArray type="Float32" Name="gradRho" format="ascii">
0.00494432 0.00100903 0.00983824 0.117748 64.6096 64.6135 2.97115 2.81199 64.1832 69.789 42.1747 42.849 30.3189 29.4185 0.000134208 0.000272893 44.3665 43.4945 8.00997 11.5387 10.7205 10.6842 2.12269e-05 8.82793e-06 57.1287 57.6107 0 1.81589e-08 2.33701e-08 3.40453e-07 6.07169e-07 0 0.268792 1.42297 0 0 0 0 0 0.920631 0.920607 2.13083e-10 8.80179e-08 2.6496e-05 0.0025761 0.0741022 0.0719922 0.00238593 2.2866e-05 7.47874e-08 2.13083e-10 0 0.828969 0 0 8.0364e-09 1.98611e-08 8.29541e-06 3.50934e-06 0.000892967 0.00146864 0.106858 0.0807214 2.31277 2.05085 
        </DataArray>
      </CellData>
    </Piece>
  </UnstructuredGrid>
</VTKFile>
