<?xml version="1.0"?>
<VTKFile type="UnstructuredGrid" version="0.1" byte_order="LittleEndian">
  <UnstructuredGrid>
    <Piece NumberOfPoints="50" NumberOfCells="65">
      <Points>
        <DataArray type="Float32" NumberOfComponents="3" format="ascii">
          0 5 0 0 -5 0 15 0.2 0 15 -0.2 0 35 0.2 0 35 -0.2 0 2.14286 4.31429 0 4.28571 3.62857 0 6.42857 2.94286 0 8.57143 2.25714 0 10.7143 1.57143 0 12.8571 0.885714 0 17.8571 0.2 0 20.7143 0.2 0 23.5714 0.2 0 26.4286 0.2 0 29.2857 0.2 0 32.1429 0.2 0 32.1429 -0.2 0 29.2857 -0.2 0 26.4286 -0.2 0 23.5714 -0.2 0 20.7143 -0.2 0 17.8571 -0.2 0 12.8571 -0.885714 0 10.7143 -1.57143 0 8.57143 -2.25714 0 6.42857 -2.94286 0 4.28571 -3.62857 0 2.14286 -4.31429 0 0 -2.5 0 0 -6.16307e-12 0 0 2.5 0 3.95974 -5.7158e-13 0 13.9286 -3.66374e-15 0 6.61813 2.81487e-12 0 2.86365 2.0434 0 2.86365 -2.0434 0 9.43036 1.987e-12 0 11.3926 2.79508e-14 0 4.83116 1.72297 0 4.83116 -1.72297 0 1.90629 -3.21031e-12 0 33.5714 0 0 16.4286 -1.80625e-18 0 25 6.93889e-18 0 19.2857 -6.93889e-18 0 30.7143 0 0 22.1429 0 0 27.8571 0 0 
        </DataArray>
      </Points>
      <Cells>
        <DataArray type="Int32" Name="connectivity" format="ascii">
          8 9 35 26 27 35 8 35 40 27 41 35 30 42 37 32 36 42 33 40 35 33 35 41 29 30 37 6 36 32 30 31 42 31 32 42 0 6 32 30 29 1 26 35 38 9 38 35 6 7 36 28 29 37 7 40 36 33 41 37 33 36 40 28 37 41 9 10 38 25 26 38 33 42 36 33 37 42 11 34 24 24 25 39 10 11 39 25 38 39 10 39 38 11 24 39 27 28 41 7 8 40 2 34 11 3 24 34 2 3 34 2 44 12 3 23 44 4 17 43 5 43 18 12 46 13 13 48 14 14 45 15 15 49 16 16 47 17 18 47 19 19 49 20 20 45 21 21 48 22 22 46 23 2 3 44 4 43 5 12 44 23 12 23 46 13 46 22 13 22 48 14 21 45 14 48 21 15 45 20 15 20 49 16 19 47 16 49 19 17 18 43 17 47 18 
        </DataArray>
        <DataArray type="Int32" Name="offsets" format="ascii">
          3 6 9 12 15 18 21 24 27 30 33 36 39 42 45 48 51 54 57 60 63 66 69 72 75 78 81 84 87 90 93 96 99 102 105 108 111 114 117 120 123 126 129 132 135 138 141 144 147 150 153 156 159 162 165 168 171 174 177 180 183 186 189 192 195 
        </DataArray>
        <DataArray type="UInt8" Name="types" format="ascii">
          5 5 5 5 5 5 5 5 5 5 5 5 5 5 5 5 5 5 5 5 5 5 5 5 5 5 5 5 5 5 5 5 5 5 5 5 5 5 5 5 5 5 5 5 5 5 5 5 5 5 5 5 5 5 5 5 5 5 5 5 5 5 5 5 5 
        </DataArray>
      </Cells>
      <CellData>
        <DataArray type="Float32" Name="F0_Alpha_SG_co2liq_mod.xml" format="ascii">
1.69912e-10 1.69615e-10 1.66225e-10 1.66634e-10 1.64971e-10 1.64891e-10 1.6474e-10 1.64312e-10 1.63421e-10 1.63365e-10 1.67778e-10 1.67779e-10 1.60986e-10 1.61286e-10 1.72423e-10 1.72083e-10 1.62385e-10 1.62569e-10 1.62018e-10 1.62836e-10 1.63422e-10 1.6152e-10 1.72645e-10 1.7269e-10 1.64161e-10 1.64221e-10 1.72682e-10 1.72682e-10 1.72687e-10 1.72685e-10 1.72699e-10 1.72682e-10 1.62444e-10 1.62652e-10 1.72682e-10 1.72682e-10 1.72682e-10 1.72682e-10 1.72682e-10 1.73367e-10 1.73367e-10 1.72682e-10 1.72682e-10 1.72689e-10 1.72745e-10 1.72976e-10 1.72977e-10 1.72745e-10 1.72689e-10 1.72682e-10 1.72682e-10 1.72682e-10 1.73397e-10 1.72682e-10 1.72682e-10 1.72682e-10 1.72682e-10 1.72687e-10 1.72683e-10 1.72693e-10 1.72727e-10 1.72917e-10 1.72765e-10 1.73298e-10 1.73032e-10 
        </DataArray>
        <DataArray type="Float32" Name="F0_Density_SG_co2liq_mod.xml" format="ascii">
6055.53 6071.87 6258.08 6235.31 6517.25 6522.27 6393.74 6419.21 6626.42 6629.69 6347.64 6347.62 6802.49 6781.97 5913.22 5933.65 6644.47 6635.4 6611.37 6578.4 6544.84 6640.5 5899.45 5896.6 6533.29 6530.03 5897.13 5897.13 5896.84 5896.93 5896.03 5897.1 6502.67 6488.68 5897.13 5897.13 5897.13 5897.13 5897.13 5849.81 5849.81 5897.13 5897.1 5896.66 5893.09 5877.88 5877.88 5893.1 5896.66 5897.1 5897.13 5897.13 5843.7 5897.13 5897.13 5897.13 5897.11 5896.83 5897.08 5896.45 5894.26 5881.89 5891.81 5855.15 5874.04 
        </DataArray>
        <DataArray type="Float32" Name="F0_Temperature_SG_co2liq_mod.xml" format="ascii">
42.0999 42.1213 42.2964 42.2799 42.4272 42.429 42.3756 42.3876 42.4614 42.4623 42.3518 42.3518 42.5001 42.4964 41.8283 41.8813 42.4662 42.4638 42.4572 42.4475 42.4368 42.4652 41.7879 41.779 42.4329 42.4317 41.7807 41.7807 41.7798 41.78 41.7772 41.7806 42.4219 42.4167 41.7807 41.7807 41.7807 41.7807 41.7807 41.5922 41.5922 41.7807 41.7806 41.7792 41.7677 41.7148 41.7148 41.7678 41.7792 41.7806 41.7807 41.7807 41.5591 41.7807 41.7807 41.7807 41.7806 41.7797 41.7805 41.7785 41.7715 41.7295 41.7636 41.6189 41.7002 
        </DataArray>
        <DataArray type="Float32" Name="F0_Mass fraction_SG_co2liq_mod.xml" format="ascii">
6.04794e-09 5.84576e-09 4.2962e-09 4.43756e-09 2.35988e-09 2.34988e-09 3.2553e-09 3.16537e-09 2.13478e-09 2.13027e-09 2.74913e-09 2.7492e-09 1.85368e-09 1.88009e-09 8.97979e-09 8.335e-09 2.21894e-09 2.22794e-09 2.43871e-09 2.44995e-09 2.51237e-09 2.38718e-09 9.49775e-09 9.61663e-09 2.42801e-09 2.43344e-09 9.59433e-09 9.59452e-09 9.60663e-09 9.60282e-09 9.64078e-09 9.59561e-09 3.04689e-09 3.09868e-09 9.59438e-09 9.5944e-09 9.5944e-09 9.5944e-09 9.5944e-09 1.24155e-08 1.24155e-08 9.59446e-09 9.59575e-09 9.61407e-09 9.76858e-09 1.05092e-08 1.05092e-08 9.7682e-09 9.61412e-09 9.59576e-09 9.59446e-09 9.5944e-09 1.32318e-08 9.5944e-09 9.59443e-09 9.59451e-09 9.59516e-09 9.60693e-09 9.59662e-09 9.6232e-09 9.71732e-09 1.02989e-08 9.82565e-09 1.19733e-08 1.07265e-08 
        </DataArray>
        <DataArray type="Float32" Name="F1_Alpha_SG_co2gas_mod.xml" format="ascii">
1 1 1 1 1 1 1 1 1 1 1 1 1 1 1 1 1 1 1 1 1 1 1 1 1 1 1 1 1 1 1 1 1 1 1 1 1 1 1 1 1 1 1 1 1 1 1 1 1 1 1 1 1 1 1 1 1 1 1 1 1 1 1 1 1 
        </DataArray>
        <DataArray type="Float32" Name="F1_Density_SG_co2gas_mod.xml" format="ascii">
170.125 176.176 242.132 234.141 455.599 457.669 323.566 333.215 507.263 508.414 387.394 387.384 590.775 581.801 113.541 122.505 486.251 484.176 439.234 437.233 425.723 449.305 107.237 105.888 441.726 440.68 106.139 106.136 106 106.043 105.618 106.124 346.688 340.597 106.138 106.138 106.138 106.138 106.138 81.6848 81.6853 106.137 106.123 105.917 104.212 96.7472 96.7469 104.216 105.916 106.122 106.137 106.138 76.5791 106.138 106.137 106.137 106.129 105.997 106.113 105.814 104.771 98.7562 103.596 84.7456 94.7554 
        </DataArray>
        <DataArray type="Float32" Name="F1_Temperature_SG_co2gas_mod.xml" format="ascii">
486.054 487.361 497.889 497.225 365.255 365.506 447.487 447.996 365.223 365.499 352.672 352.672 364.44 364.078 468.577 471.338 387.376 385.824 415.898 404.809 402.125 417.717 466.665 466.32 383.028 382.654 466.386 466.385 466.349 466.36 466.249 466.382 472.686 473.991 466.385 466.385 466.385 466.385 466.385 459.692 459.692 466.385 466.381 466.327 465.876 463.871 463.866 465.877 466.327 466.381 466.385 466.385 467.654 466.385 466.385 466.385 466.383 466.348 466.379 466.3 466.024 464.402 465.729 460.423 463.539 
        </DataArray>
        <DataArray type="Float32" Name="F1_Mass fraction_SG_co2gas_mod.xml" format="ascii">
1 1 1 1 1 1 1 1 1 1 1 1 1 1 1 1 1 1 1 1 1 1 1 1 1 1 1 1 1 1 1 1 1 1 1 1 1 1 1 1 1 1 1 1 1 1 1 1 1 1 1 1 1 1 1 1 1 1 1 1 1 1 1 1 1 
        </DataArray>
        <DataArray type="Float32" Name="Density_Mixture" format="ascii">
170.125 176.176 242.132 234.141 455.599 457.669 323.566 333.215 507.263 508.414 387.394 387.384 590.775 581.801 113.541 122.505 486.251 484.176 439.234 437.233 425.723 449.305 107.237 105.888 441.726 440.68 106.139 106.136 106 106.043 105.618 106.124 346.688 340.597 106.138 106.138 106.138 106.138 106.138 81.6848 81.6853 106.137 106.123 105.917 104.212 96.7472 96.7469 104.216 105.916 106.122 106.137 106.138 76.5791 106.138 106.137 106.137 106.129 105.997 106.113 105.814 104.771 98.7563 103.596 84.7456 94.7554 
        </DataArray>
        <DataArray type="Float32" Name="Pressure_Mixture" format="ascii">
1.1071e+07 1.15296e+07 1.65463e+07 1.59485e+07 2.31769e+07 2.33028e+07 2.00509e+07 2.06997e+07 2.59032e+07 2.59843e+07 1.88697e+07 1.88692e+07 3.02467e+07 2.97433e+07 6.80713e+06 7.46339e+06 2.63511e+07 2.61262e+07 2.5529e+07 2.47076e+07 2.38686e+07 2.62528e+07 6.35035e+06 6.25402e+06 2.35794e+07 2.34976e+07 6.27191e+06 6.27176e+06 6.26203e+06 6.26508e+06 6.23472e+06 6.27088e+06 2.28102e+07 2.24582e+07 6.27187e+06 6.27186e+06 6.27186e+06 6.27186e+06 6.27186e+06 4.54371e+06 4.54374e+06 6.27181e+06 6.27077e+06 6.25606e+06 6.13431e+06 5.60339e+06 5.6033e+06 6.1346e+06 6.25602e+06 6.27077e+06 6.27181e+06 6.27186e+06 4.29249e+06 6.27185e+06 6.27183e+06 6.27177e+06 6.27124e+06 6.26179e+06 6.27007e+06 6.24876e+06 6.17423e+06 5.74574e+06 6.09061e+06 4.75613e+06 5.46524e+06 
        </DataArray>
        <DataArray type="Float32" Name="Velocity_Mixture" NumberOfComponents="3" format="ascii">
144.381 -16.4407 0 125.158 35.9475 0 217.403 -31.748 0 217.22 33.2095 0 322.387 27.132 0 322.145 -29.084 0 280.954 -14.6437 0 284.257 24.4421 0 305.131 49.3078 0 305.287 -50.0388 0 343.774 0.0638246 0 343.778 -0.0609473 0 275.386 -42.6397 0 276.869 45.6961 0 14.1138 0.918209 0 40.7366 -13.3736 0 293.469 -69.9803 0 297.566 76.5438 0 294.124 -69.28 0 289.703 42.9052 0 297.253 -35.8192 0 288.202 85.1263 0 -0.203128 -2.07227 0 -0.508948 0.248573 0 304.752 -16.3701 0 304.014 16.1365 0 0.00201568 -0.00025408 0 0.000791747 0.00143976 0 -0.319991 -0.0611882 0 -0.119947 0.194207 0 -1.07064 1.03054 0 -0.02464 0.0320851 0 273.566 84.2334 0 277.558 -66.3214 0 0.000317825 0.000129131 0 6.32139e-05 -2.07486e-05 0 0 -2.04079e-05 0 0 0 0 0 3.18396e-06 0 33.2983 -0.621564 0 33.3024 0.623603 0 0.000287056 -0.000227762 0 0.0077964 -0.00416317 0 0.124132 -0.0447863 0 1.23621 -0.256891 0 7.80574 -0.679723 0 7.80224 0.666521 0 1.25959 0.247006 0 0.129719 0.0430216 0 0.008292 0.00402757 0 0.000317984 0.000223755 0 0 0 0 71.1568 0.00262185 0 0.000133921 0 0 0.000243497 1.74052e-05 0 0.00534601 -0.000140411 0 0.00798467 0.000746063 0 0.151118 0.0102029 0 0.111729 -0.00274956 0 1.44139 -0.0298693 0 1.79129 0.0644795 0 12.8904 0.0547494 0 10.7627 -0.112726 0 54.1761 -0.00220096 0 42.3638 -0.0608718 0 
        </DataArray>
        <DataArray type="Float32" Name="gradRho" format="ascii">
28.6598 27.2962 49.8335 49.342 30.0457 30.1744 57.2909 61.1355 39.0018 40.6335 47.3705 48.8133 19.4445 17.5976 18.2162 19.0789 17.1692 14.8035 54.6568 38.4404 41.4278 52.8157 5.53442 2.55756 10.6184 6.14253 0.0060088 0.033727 0.161114 0.197202 0.329949 0.0583792 53.2283 49.4174 0.000270431 0.000349135 0.000103785 4.84416e-06 4.08945e-06 0.789779 0.789944 8.82136e-05 0.00145513 0.0143175 0.0859638 0.288445 0.288448 0.0863471 0.0142089 0.00142186 8.60378e-05 2.51983e-06 0.736153 0.000104075 0.000133916 0.00263721 0.00321842 0.0482939 0.0414981 0.374898 0.418679 1.88703 1.75331 3.79758 3.69484 
        </DataArray>
      </CellData>
    </Piece>
  </UnstructuredGrid>
</VTKFile>
