<?xml version="1.0"?>
<VTKFile type="UnstructuredGrid" version="0.1" byte_order="LittleEndian">
  <UnstructuredGrid>
    <Piece NumberOfPoints="50" NumberOfCells="65">
      <Points>
        <DataArray type="Float32" NumberOfComponents="3" format="ascii">
          0 5 0 0 -5 0 15 0.2 0 15 -0.2 0 35 0.2 0 35 -0.2 0 2.14286 4.31429 0 4.28571 3.62857 0 6.42857 2.94286 0 8.57143 2.25714 0 10.7143 1.57143 0 12.8571 0.885714 0 17.8571 0.2 0 20.7143 0.2 0 23.5714 0.2 0 26.4286 0.2 0 29.2857 0.2 0 32.1429 0.2 0 32.1429 -0.2 0 29.2857 -0.2 0 26.4286 -0.2 0 23.5714 -0.2 0 20.7143 -0.2 0 17.8571 -0.2 0 12.8571 -0.885714 0 10.7143 -1.57143 0 8.57143 -2.25714 0 6.42857 -2.94286 0 4.28571 -3.62857 0 2.14286 -4.31429 0 0 -2.5 0 0 -6.16307e-12 0 0 2.5 0 3.95974 -5.7158e-13 0 13.9286 -3.66374e-15 0 6.61813 2.81487e-12 0 2.86365 2.0434 0 2.86365 -2.0434 0 9.43036 1.987e-12 0 11.3926 2.79508e-14 0 4.83116 1.72297 0 4.83116 -1.72297 0 1.90629 -3.21031e-12 0 33.5714 0 0 16.4286 -1.80625e-18 0 25 6.93889e-18 0 19.2857 -6.93889e-18 0 30.7143 0 0 22.1429 0 0 27.8571 0 0 
        </DataArray>
      </Points>
      <Cells>
        <DataArray type="Int32" Name="connectivity" format="ascii">
          8 9 35 26 27 35 8 35 40 27 41 35 30 42 37 32 36 42 33 40 35 33 35 41 29 30 37 6 36 32 30 31 42 31 32 42 0 6 32 30 29 1 26 35 38 9 38 35 6 7 36 28 29 37 7 40 36 33 41 37 33 36 40 28 37 41 9 10 38 25 26 38 33 42 36 33 37 42 11 34 24 24 25 39 10 11 39 25 38 39 10 39 38 11 24 39 27 28 41 7 8 40 2 34 11 3 24 34 2 3 34 2 44 12 3 23 44 4 17 43 5 43 18 12 46 13 13 48 14 14 45 15 15 49 16 16 47 17 18 47 19 19 49 20 20 45 21 21 48 22 22 46 23 2 3 44 4 43 5 12 44 23 12 23 46 13 46 22 13 22 48 14 21 45 14 48 21 15 45 20 15 20 49 16 19 47 16 49 19 17 18 43 17 47 18 
        </DataArray>
        <DataArray type="Int32" Name="offsets" format="ascii">
          3 6 9 12 15 18 21 24 27 30 33 36 39 42 45 48 51 54 57 60 63 66 69 72 75 78 81 84 87 90 93 96 99 102 105 108 111 114 117 120 123 126 129 132 135 138 141 144 147 150 153 156 159 162 165 168 171 174 177 180 183 186 189 192 195 
        </DataArray>
        <DataArray type="UInt8" Name="types" format="ascii">
          5 5 5 5 5 5 5 5 5 5 5 5 5 5 5 5 5 5 5 5 5 5 5 5 5 5 5 5 5 5 5 5 5 5 5 5 5 5 5 5 5 5 5 5 5 5 5 5 5 5 5 5 5 5 5 5 5 5 5 5 5 5 5 5 5 
        </DataArray>
      </Cells>
      <CellData>
        <DataArray type="Float32" Name="F0_Alpha_SG_co2liq_mod.xml" format="ascii">
1.70641e-10 1.70507e-10 1.67267e-10 1.67686e-10 1.65001e-10 1.64923e-10 1.65293e-10 1.64846e-10 1.63525e-10 1.63451e-10 1.67775e-10 1.67775e-10 1.6122e-10 1.6152e-10 1.72544e-10 1.72286e-10 1.62484e-10 1.62615e-10 1.62218e-10 1.63079e-10 1.6365e-10 1.61733e-10 1.72663e-10 1.72685e-10 1.64319e-10 1.64395e-10 1.72682e-10 1.72682e-10 1.72685e-10 1.72684e-10 1.72697e-10 1.72682e-10 1.62964e-10 1.63287e-10 1.72682e-10 1.72682e-10 1.72682e-10 1.72682e-10 1.72682e-10 1.73356e-10 1.73356e-10 1.72682e-10 1.72682e-10 1.72688e-10 1.72737e-10 1.72958e-10 1.72958e-10 1.72737e-10 1.72688e-10 1.72682e-10 1.72682e-10 1.72682e-10 1.73387e-10 1.72682e-10 1.72682e-10 1.72682e-10 1.72682e-10 1.72686e-10 1.72683e-10 1.72691e-10 1.72721e-10 1.729e-10 1.72755e-10 1.73285e-10 1.73012e-10 
        </DataArray>
        <DataArray type="Float32" Name="F0_Density_SG_co2liq_mod.xml" format="ascii">
6015 6022.64 6199.31 6175.39 6512.28 6517.29 6353.24 6379.29 6616.58 6620.76 6347.52 6347.49 6785.57 6765.11 5905.79 5921.54 6630.61 6625.3 6588.54 6555.28 6522.41 6617.07 5898.36 5896.94 6518.39 6514.32 5897.13 5897.13 5896.94 5897 5896.16 5897.11 6462.22 6442.32 5897.13 5897.13 5897.13 5897.13 5897.13 5850.65 5850.65 5897.13 5897.11 5896.75 5893.6 5879.13 5879.12 5893.61 5896.75 5897.11 5897.13 5897.13 5844.42 5897.13 5897.13 5897.13 5897.12 5896.9 5897.09 5896.57 5894.66 5883.02 5892.44 5856.14 5875.37 
        </DataArray>
        <DataArray type="Float32" Name="F0_Temperature_SG_co2liq_mod.xml" format="ascii">
42.0406 42.0526 42.2517 42.2311 42.4255 42.4273 42.3549 42.3685 42.4587 42.4598 42.3517 42.3517 42.4971 42.4933 41.807 41.8507 42.4625 42.4611 42.4506 42.4402 42.4291 42.4588 41.7845 41.7801 42.4276 42.4262 41.7807 41.7807 41.7801 41.7803 41.7776 41.7806 42.4062 42.3978 41.7807 41.7807 41.7807 41.7807 41.7807 41.5966 41.5966 41.7807 41.7806 41.7795 41.7694 41.7195 41.7195 41.7694 41.7795 41.7806 41.7807 41.7807 41.5632 41.7807 41.7807 41.7807 41.7806 41.7799 41.7805 41.7789 41.7728 41.7335 41.7656 41.6236 41.7054 
        </DataArray>
        <DataArray type="Float32" Name="F0_Mass fraction_SG_co2liq_mod.xml" format="ascii">
6.63319e-09 6.5082e-09 4.69544e-09 4.88765e-09 2.37876e-09 2.36831e-09 3.4617e-09 3.35942e-09 2.1583e-09 2.15271e-09 2.75073e-09 2.75079e-09 1.87688e-09 1.90393e-09 9.24924e-09 8.70106e-09 2.26257e-09 2.26429e-09 2.52065e-09 2.52552e-09 2.59184e-09 2.46574e-09 9.54277e-09 9.60245e-09 2.4756e-09 2.4823e-09 9.59437e-09 9.59447e-09 9.60251e-09 9.5999e-09 9.63561e-09 9.59506e-09 3.23129e-09 3.30659e-09 9.59439e-09 9.5944e-09 9.5944e-09 9.5944e-09 9.5944e-09 1.23434e-08 1.23434e-08 9.59444e-09 9.59539e-09 9.61022e-09 9.74584e-09 1.04428e-08 1.04428e-08 9.74552e-09 9.61027e-09 9.5954e-09 9.59444e-09 9.5944e-09 1.31622e-08 9.5944e-09 9.59442e-09 9.59447e-09 9.59495e-09 9.60429e-09 9.59607e-09 9.61799e-09 9.7e-09 1.02421e-08 9.79746e-09 1.18976e-08 1.06514e-08 
        </DataArray>
        <DataArray type="Float32" Name="F1_Alpha_SG_co2gas_mod.xml" format="ascii">
1 1 1 1 1 1 1 1 1 1 1 1 1 1 1 1 1 1 1 1 1 1 1 1 1 1 1 1 1 1 1 1 1 1 1 1 1 1 1 1 1 1 1 1 1 1 1 1 1 1 1 1 1 1 1 1 1 1 1 1 1 1 1 1 1 
        </DataArray>
        <DataArray type="Float32" Name="F1_Density_SG_co2gas_mod.xml" format="ascii">
154.738 157.786 220.84 211.866 451.72 453.848 303.36 313.031 501.311 502.699 387.154 387.144 582.865 573.919 110.172 117.25 476.171 475.812 424.01 423.292 411.829 434.026 106.722 106.047 432.66 431.423 106.138 106.137 106.047 106.076 105.676 106.13 325.91 318.137 106.138 106.138 106.138 106.138 106.138 82.1687 82.1692 106.137 106.127 105.96 104.459 97.3727 97.3724 104.463 105.959 106.126 106.137 106.138 76.9892 106.138 106.138 106.137 106.132 106.027 106.119 105.873 104.962 99.3125 103.899 85.2928 95.4347 
        </DataArray>
        <DataArray type="Float32" Name="F1_Temperature_SG_co2gas_mod.xml" format="ascii">
482.632 482.983 497.338 497.566 366.478 366.679 453.644 454.39 366.187 366.603 352.833 352.833 364.462 364.086 467.521 469.676 390.582 388.96 421.558 408.706 406.251 423.147 466.534 466.362 385.078 384.54 466.385 466.385 466.361 466.369 466.264 466.383 481.176 481.983 466.385 466.385 466.385 466.385 466.385 459.83 459.831 466.385 466.382 466.338 465.942 464.042 464.037 465.943 466.338 466.382 466.385 466.385 467.854 466.385 466.385 466.385 466.384 466.356 466.38 466.316 466.074 464.555 465.807 460.588 463.714 
        </DataArray>
        <DataArray type="Float32" Name="F1_Mass fraction_SG_co2gas_mod.xml" format="ascii">
1 1 1 1 1 1 1 1 1 1 1 1 1 1 1 1 1 1 1 1 1 1 1 1 1 1 1 1 1 1 1 1 1 1 1 1 1 1 1 1 1 1 1 1 1 1 1 1 1 1 1 1 1 1 1 1 1 1 1 1 1 1 1 1 1 
        </DataArray>
        <DataArray type="Float32" Name="Density_Mixture" format="ascii">
154.738 157.786 220.84 211.866 451.72 453.848 303.36 313.031 501.311 502.699 387.154 387.144 582.865 573.919 110.172 117.25 476.171 475.812 424.01 423.292 411.829 434.026 106.722 106.047 432.66 431.423 106.138 106.137 106.047 106.076 105.676 106.13 325.91 318.137 106.138 106.138 106.138 106.138 106.138 82.1687 82.1692 106.137 106.127 105.96 104.459 97.3727 97.3724 104.463 105.959 106.126 106.137 106.138 76.9892 106.138 106.138 106.137 106.132 106.027 106.119 105.873 104.962 99.3125 103.899 85.2928 95.4347 
        </DataArray>
        <DataArray type="Float32" Name="Pressure_Mixture" format="ascii">
9.91293e+06 1.01337e+07 1.49957e+07 1.43573e+07 2.30519e+07 2.31778e+07 1.90135e+07 1.96816e+07 2.56587e+07 2.57624e+07 1.88665e+07 1.88659e+07 2.98317e+07 2.9329e+07 6.56203e+06 7.07706e+06 2.60073e+07 2.58753e+07 2.49605e+07 2.41301e+07 2.33064e+07 2.56708e+07 6.31358e+06 6.26539e+06 2.32055e+07 2.31031e+07 6.27189e+06 6.2718e+06 6.26534e+06 6.26743e+06 6.23884e+06 6.27132e+06 2.17902e+07 2.12865e+07 6.27186e+06 6.27186e+06 6.27186e+06 6.27186e+06 6.27186e+06 4.57751e+06 4.57755e+06 6.27183e+06 6.27106e+06 6.25914e+06 6.15197e+06 5.64775e+06 5.64766e+06 6.15221e+06 6.2591e+06 6.27105e+06 6.27183e+06 6.27186e+06 4.32245e+06 6.27186e+06 6.27184e+06 6.2718e+06 6.27142e+06 6.26391e+06 6.27051e+06 6.25292e+06 6.18783e+06 5.78527e+06 6.1122e+06 4.79459e+06 5.51319e+06 
        </DataArray>
        <DataArray type="Float32" Name="Velocity_Mixture" NumberOfComponents="3" format="ascii">
117.301 -11.3799 0 96.9004 26.926 0 196.345 -26.7429 0 192.502 26.2889 0 322.759 25.1658 0 322.589 -27.3014 0 272.194 -13.3587 0 276.537 22.2193 0 306.172 48.2992 0 306.341 -49.0083 0 343.754 0.0681513 0 343.758 -0.0653204 0 277.794 -42.5649 0 279.328 45.4983 0 7.58137 -0.724312 0 27.7354 -9.8958 0 293.497 -68.8811 0 297.429 76.474 0 292.689 -66.9203 0 288.825 40.6157 0 295.762 -33.0809 0 286.519 84.1757 0 -0.952438 -1.83113 0 -0.189165 0.143801 0 303.886 -15.8591 0 303.101 15.9997 0 0.000990306 -0.000107175 0 0.000291339 0.000582097 0 -0.21265 -0.0476905 0 -0.0610829 0.14397 0 -0.948645 0.871073 0 -0.0131557 0.0174084 0 263.761 81.5337 0 269.514 -61.5275 0 0.000141711 6.5977e-05 0 1.7983e-05 -9.37205e-07 0 0 0 0 0 0 0 0 0 0 31.467 -0.650305 0 31.471 0.652535 0 0.000177746 -0.000161154 0 0.00564983 -0.00322729 0 0.0982068 -0.0380527 0 1.05199 -0.237832 0 7.05422 -0.678206 0 7.05479 0.664072 0 1.07633 0.228442 0 0.102915 0.0365793 0 0.00603153 0.00312658 0 0.000200148 0.000156579 0 0 0 0 70.0394 0.00286701 0 6.95562e-05 0 0 0.000142627 0 0 0.00365346 -9.91596e-05 0 0.00558346 0.000552717 0 0.115793 0.00838153 0 0.0841072 -0.00212877 0 1.18583 -0.0253578 0 1.49081 0.062377 0 11.5253 0.0638452 0 9.58758 -0.119503 0 51.6752 -0.00241641 0 40.4549 -0.0710724 0 
        </DataArray>
        <DataArray type="Float32" Name="gradRho" format="ascii">
25.2454 23.5727 47.7545 48.4984 28.1997 28.3893 59.8073 63.9114 38.3659 40.3767 44.8427 46.3258 18.9263 17.1421 13.257 14.5829 19.6466 17.0602 58.9512 41.7115 44.8336 56.9015 3.80037 1.39065 13.9667 9.4761 0.00328684 0.0221851 0.150547 0.191576 0.147569 0.0386266 55.2611 51.5608 0.000135532 0.000174117 5.03185e-05 3.09891e-06 2.63706e-06 0.798943 0.799123 6.32883e-05 0.00114928 0.0122786 0.0780192 0.279533 0.279533 0.0783757 0.0121631 0.00111969 6.18542e-05 1.52708e-06 0.746786 6.79191e-05 8.86695e-05 0.00191 0.0023544 0.038772 0.033074 0.327201 0.366977 1.79183 1.65938 3.84994 3.73594 
        </DataArray>
      </CellData>
    </Piece>
  </UnstructuredGrid>
</VTKFile>
