<?xml version="1.0"?>
<VTKFile type="UnstructuredGrid" version="0.1" byte_order="LittleEndian">
  <UnstructuredGrid>
    <Piece NumberOfPoints="50" NumberOfCells="65">
      <Points>
        <DataArray type="Float32" NumberOfComponents="3" format="ascii">
          0 5 0 0 -5 0 15 0.2 0 15 -0.2 0 35 0.2 0 35 -0.2 0 2.14286 4.31429 0 4.28571 3.62857 0 6.42857 2.94286 0 8.57143 2.25714 0 10.7143 1.57143 0 12.8571 0.885714 0 17.8571 0.2 0 20.7143 0.2 0 23.5714 0.2 0 26.4286 0.2 0 29.2857 0.2 0 32.1429 0.2 0 32.1429 -0.2 0 29.2857 -0.2 0 26.4286 -0.2 0 23.5714 -0.2 0 20.7143 -0.2 0 17.8571 -0.2 0 12.8571 -0.885714 0 10.7143 -1.57143 0 8.57143 -2.25714 0 6.42857 -2.94286 0 4.28571 -3.62857 0 2.14286 -4.31429 0 0 -2.5 0 0 -6.16307e-12 0 0 2.5 0 3.95974 -5.7158e-13 0 13.9286 -3.66374e-15 0 6.61813 2.81487e-12 0 2.86365 2.0434 0 2.86365 -2.0434 0 9.43036 1.987e-12 0 11.3926 2.79508e-14 0 4.83116 1.72297 0 4.83116 -1.72297 0 1.90629 -3.21031e-12 0 33.5714 0 0 16.4286 -1.80625e-18 0 25 6.93889e-18 0 19.2857 -6.93889e-18 0 30.7143 0 0 22.1429 0 0 27.8571 0 0 
        </DataArray>
      </Points>
      <Cells>
        <DataArray type="Int32" Name="connectivity" format="ascii">
          8 9 35 26 27 35 8 35 40 27 41 35 30 42 37 32 36 42 33 40 35 33 35 41 29 30 37 6 36 32 30 31 42 31 32 42 0 6 32 30 29 1 26 35 38 9 38 35 6 7 36 28 29 37 7 40 36 33 41 37 33 36 40 28 37 41 9 10 38 25 26 38 33 42 36 33 37 42 11 34 24 24 25 39 10 11 39 25 38 39 10 39 38 11 24 39 27 28 41 7 8 40 2 34 11 3 24 34 2 3 34 2 44 12 3 23 44 4 17 43 5 43 18 12 46 13 13 48 14 14 45 15 15 49 16 16 47 17 18 47 19 19 49 20 20 45 21 21 48 22 22 46 23 2 3 44 4 43 5 12 44 23 12 23 46 13 46 22 13 22 48 14 21 45 14 48 21 15 45 20 15 20 49 16 19 47 16 49 19 17 18 43 17 47 18 
        </DataArray>
        <DataArray type="Int32" Name="offsets" format="ascii">
          3 6 9 12 15 18 21 24 27 30 33 36 39 42 45 48 51 54 57 60 63 66 69 72 75 78 81 84 87 90 93 96 99 102 105 108 111 114 117 120 123 126 129 132 135 138 141 144 147 150 153 156 159 162 165 168 171 174 177 180 183 186 189 192 195 
        </DataArray>
        <DataArray type="UInt8" Name="types" format="ascii">
          5 5 5 5 5 5 5 5 5 5 5 5 5 5 5 5 5 5 5 5 5 5 5 5 5 5 5 5 5 5 5 5 5 5 5 5 5 5 5 5 5 5 5 5 5 5 5 5 5 5 5 5 5 5 5 5 5 5 5 5 5 5 5 5 5 
        </DataArray>
      </Cells>
      <CellData>
        <DataArray type="Float32" Name="F0_Alpha_SG_co2liq_mod.xml" format="ascii">
1.72585e-10 1.72614e-10 1.72121e-10 1.72346e-10 1.65274e-10 1.65229e-10 1.69919e-10 1.69752e-10 1.64364e-10 1.64184e-10 1.67742e-10 1.67742e-10 1.62911e-10 1.6321e-10 1.72682e-10 1.72671e-10 1.64002e-10 1.63389e-10 1.65466e-10 1.65949e-10 1.66077e-10 1.65258e-10 1.72682e-10 1.72682e-10 1.65554e-10 1.65588e-10 1.72682e-10 1.72682e-10 1.72682e-10 1.72682e-10 1.72682e-10 1.72682e-10 1.70194e-10 1.70137e-10 1.72682e-10 1.72682e-10 1.72682e-10 1.72682e-10 1.72682e-10 1.73262e-10 1.73262e-10 1.72682e-10 1.72682e-10 1.72683e-10 1.72699e-10 1.72834e-10 1.72834e-10 1.72699e-10 1.72683e-10 1.72682e-10 1.72682e-10 1.72682e-10 1.73305e-10 1.72682e-10 1.72682e-10 1.72682e-10 1.72682e-10 1.72682e-10 1.72682e-10 1.72684e-10 1.72692e-10 1.72792e-10 1.72707e-10 1.73176e-10 1.72878e-10 
        </DataArray>
        <DataArray type="Float32" Name="F0_Density_SG_co2liq_mod.xml" format="ascii">
5903.25 5901.41 5931.33 5917.64 6472.32 6475.05 6058.69 6068.09 6530.38 6540.95 6345.09 6345.06 6661.24 6641.36 5897.1 5897.83 6472.03 6510.59 6321.76 6319.97 6312.58 6334.19 5897.12 5897.12 6392.2 6390.04 5897.13 5897.13 5897.13 5897.13 5897.11 5897.13 6039.72 6041.76 5897.13 5897.13 5897.13 5897.13 5897.13 5857.8 5857.81 5897.13 5897.13 5897.07 5896.06 5887.31 5887.34 5896.06 5897.07 5897.13 5897.13 5897.13 5850.82 5897.13 5897.13 5897.13 5897.13 5897.1 5897.13 5897.03 5896.47 5890.04 5895.53 5864.07 5884.42 
        </DataArray>
        <DataArray type="Float32" Name="F0_Temperature_SG_co2liq_mod.xml" format="ascii">
41.7995 41.7939 41.8757 41.8404 42.4103 42.4114 42.1042 42.1165 42.4318 42.4355 42.3504 42.3504 42.4705 42.4654 41.7806 41.7829 42.4102 42.4248 42.3371 42.3361 42.3317 42.3443 41.7806 41.7806 42.3749 42.3738 41.7807 41.7807 41.7807 41.7807 41.7806 41.7807 42.078 42.0809 41.7807 41.7807 41.7807 41.7807 41.7807 41.6314 41.6315 41.7807 41.7807 41.7805 41.7773 41.7485 41.7486 41.7773 41.7805 41.7807 41.7807 41.7807 41.5974 41.7807 41.7807 41.7807 41.7807 41.7806 41.7807 41.7803 41.7786 41.7577 41.7756 41.6595 41.7385 
        </DataArray>
        <DataArray type="Float32" Name="F0_Mass fraction_SG_co2liq_mod.xml" format="ascii">
9.34676e-09 9.4192e-09 8.40469e-09 8.84218e-09 2.53636e-09 2.53009e-09 5.93294e-09 5.8147e-09 2.40491e-09 2.38522e-09 2.77495e-09 2.77503e-09 2.07519e-09 2.10762e-09 9.59568e-09 9.56507e-09 2.83381e-09 2.72595e-09 3.75947e-09 3.56704e-09 3.59926e-09 3.69827e-09 9.59471e-09 9.59476e-09 3.00732e-09 3.01493e-09 9.5944e-09 9.5944e-09 9.59448e-09 9.59442e-09 9.59524e-09 9.5944e-09 6.26543e-09 6.26255e-09 9.5944e-09 9.5944e-09 9.5944e-09 9.5944e-09 9.5944e-09 1.17755e-08 1.17752e-08 9.5944e-09 9.59447e-09 9.59684e-09 9.63967e-09 1.0033e-08 1.00314e-08 9.63978e-09 9.59686e-09 9.59447e-09 9.5944e-09 9.5944e-09 1.2572e-08 9.5944e-09 9.5944e-09 9.5944e-09 9.59443e-09 9.59567e-09 9.59455e-09 9.59873e-09 9.62226e-09 9.90558e-09 9.66248e-09 1.13335e-08 1.0175e-08 
        </DataArray>
        <DataArray type="Float32" Name="F1_Alpha_SG_co2gas_mod.xml" format="ascii">
1 1 1 1 1 1 1 1 1 1 1 1 1 1 1 1 1 1 1 1 1 1 1 1 1 1 1 1 1 1 1 1 1 1 1 1 1 1 1 1 1 1 1 1 1 1 1 1 1 1 1 1 1 1 1 1 1 1 1 1 1 1 1 1 1 
        </DataArray>
        <DataArray type="Float32" Name="F1_Density_SG_co2gas_mod.xml" format="ascii">
109.002 108.148 121.469 115.342 421.748 422.858 173.52 177.149 446.321 450.24 383.553 383.541 522.937 514.296 106.123 106.469 374.558 390.235 278.242 294.023 291.275 283.044 106.134 106.134 351.894 350.959 106.138 106.138 106.137 106.138 106.128 106.138 164.063 164.139 106.138 106.138 106.138 106.138 106.138 86.1905 86.1925 106.138 106.137 106.11 105.63 101.418 101.435 105.629 106.11 106.137 106.138 106.138 80.6536 106.138 106.138 106.138 106.137 106.123 106.136 106.089 105.825 102.745 105.377 89.6029 99.9789 
        </DataArray>
        <DataArray type="Float32" Name="F1_Temperature_SG_co2gas_mod.xml" format="ascii">
467.19 466.933 471.175 469.883 376.02 376.158 480.092 480.556 377.952 378.734 355.02 355.019 365.7 365.216 466.382 466.473 423.258 423.47 474.443 447.886 447.571 474.227 466.384 466.384 410.692 410.697 466.385 466.385 466.385 466.385 466.383 466.385 485.122 487.347 466.385 466.385 466.385 466.385 466.385 460.972 460.973 466.385 466.385 466.378 466.252 465.134 465.136 466.251 466.378 466.385 466.385 466.385 469.045 466.385 466.385 466.385 466.385 466.382 466.385 466.372 466.303 465.484 466.187 461.852 464.86 
        </DataArray>
        <DataArray type="Float32" Name="F1_Mass fraction_SG_co2gas_mod.xml" format="ascii">
1 1 1 1 1 1 1 1 1 1 1 1 1 1 1 1 1 1 1 1 1 1 1 1 1 1 1 1 1 1 1 1 1 1 1 1 1 1 1 1 1 1 1 1 1 1 1 1 1 1 1 1 1 1 1 1 1 1 1 1 1 1 1 1 1 
        </DataArray>
        <DataArray type="Float32" Name="Density_Mixture" format="ascii">
109.002 108.148 121.469 115.342 421.748 422.858 173.52 177.149 446.321 450.24 383.553 383.541 522.937 514.296 106.123 106.469 374.558 390.235 278.242 294.023 291.275 283.044 106.134 106.134 351.894 350.959 106.138 106.138 106.137 106.138 106.128 106.138 164.063 164.139 106.138 106.138 106.138 106.138 106.138 86.1905 86.1925 106.138 106.137 106.11 105.63 101.418 101.435 105.629 106.11 106.137 106.138 106.138 80.6536 106.138 106.138 106.138 106.137 106.123 106.136 106.089 105.825 102.745 105.377 89.6029 99.9789 
        </DataArray>
        <DataArray type="Float32" Name="Pressure_Mixture" format="ascii">
6.47768e+06 6.416e+06 7.3899e+06 6.95096e+06 2.20455e+07 2.21143e+07 1.116e+07 1.14238e+07 2.35063e+07 2.37714e+07 1.8804e+07 1.88034e+07 2.6767e+07 2.62741e+07 6.27083e+06 6.29556e+06 2.20381e+07 2.30096e+07 1.82026e+07 1.81562e+07 1.79649e+07 1.85233e+07 6.27161e+06 6.27157e+06 2.00116e+07 1.99563e+07 6.27186e+06 6.27186e+06 6.27179e+06 6.27184e+06 6.27118e+06 6.27185e+06 1.06228e+07 1.06809e+07 6.27186e+06 6.27186e+06 6.27186e+06 6.27186e+06 6.27186e+06 4.85917e+06 4.85931e+06 6.27186e+06 6.2718e+06 6.2699e+06 6.2356e+06 5.93523e+06 5.93637e+06 6.23551e+06 6.26987e+06 6.2718e+06 6.27186e+06 6.27186e+06 4.58424e+06 6.27186e+06 6.27186e+06 6.27186e+06 6.27183e+06 6.27083e+06 6.27174e+06 6.26837e+06 6.2495e+06 6.02969e+06 6.21751e+06 5.09803e+06 5.83446e+06 
        </DataArray>
        <DataArray type="Float32" Name="Velocity_Mixture" NumberOfComponents="3" format="ascii">
7.73926 -0.187066 0 3.83319 0.931253 0 33.6472 -2.69477 0 22.0873 -9.09788 0 319.991 10.4272 0 320.858 -12.5273 0 146.022 -7.16031 0 151.76 7.34829 0 309.271 43.9853 0 308.596 -43.4282 0 343.176 0.106269 0 343.178 -0.104432 0 293.56 -43.3503 0 295.041 45.9184 0 -0.0464561 -0.186877 0 0.733984 -0.42463 0 279.946 -56.8455 0 281.528 75.6633 0 246.506 -42.0435 0 253.806 9.98877 0 255.623 -4.77741 0 235.124 67.8339 0 -0.0554079 -0.0451904 0 -0.00399769 -0.00300569 0 284.486 -18.5921 0 284.823 20.1614 0 0 0 0 1.41599e-05 6.62301e-06 0 -0.00214861 -0.000645955 0 0.000873334 0.00378714 0 -0.0189898 0.0152565 0 -4.24657e-05 7.45124e-05 0 98.3836 34.7979 0 128.229 -12.1058 0 0 0 0 0 0 0 0 0 0 0 0 0 0 0 0 20.0469 -0.902518 0 20.0489 0.907517 0 0 0 0 0.000349297 -0.000348223 0 0.0134135 -0.00886079 0 0.274788 -0.111607 0 3.04015 -0.590409 0 3.08923 0.56848 0 0.288712 0.107131 0 0.0144317 0.00859518 0 0.000390529 0.000344485 0 0 3.13503e-06 0 0 0 0 61.511 0.00579352 0 0 0 0 0 0 0 0.000118808 0 0 0.000247437 2.92087e-05 0 0.0120189 0.00139953 0 0.00733582 -0.000219679 0 0.217499 -0.00584809 0 0.30938 0.0251857 0 4.37735 0.169591 0 3.44025 -0.0753887 0 33.1053 -0.00593759 0 26.0077 -0.229861 0 
        </DataArray>
        <DataArray type="Float32" Name="gradRho" format="ascii">
4.00381 2.40286 17.4001 17.8086 22.0375 22.8007 55.7397 57.4805 39.0826 46.886 26.5284 27.3054 17.163 16.0483 0.497517 0.853516 44.6467 40.86 72.8369 57.8109 59.3215 77.934 0.114732 0.00439481 43.7433 42.4604 1.5461e-05 8.00536e-05 0.00331527 0.00390114 0.00346789 0.000398893 48.069 45.5022 2.96284e-07 3.27365e-07 4.19422e-08 5.17818e-08 4.33769e-08 0.845778 0.846453 4.95021e-06 0.000147692 0.00325699 0.0357502 0.20152 0.202908 0.0354801 0.00315914 0.000141123 4.20252e-06 1.74802e-08 0.798419 1.6184e-06 2.38482e-06 0.000116112 0.00015905 0.00569785 0.00450737 0.0944725 0.111191 1.0477 0.94524 3.9595 3.77076 
        </DataArray>
      </CellData>
    </Piece>
  </UnstructuredGrid>
</VTKFile>
