<?xml version="1.0"?>
<VTKFile type="UnstructuredGrid" version="0.1" byte_order="LittleEndian">
  <UnstructuredGrid>
    <Piece NumberOfPoints="50" NumberOfCells="65">
      <Points>
        <DataArray type="Float32" NumberOfComponents="3" format="ascii">
          0 5 0 0 -5 0 15 0.2 0 15 -0.2 0 35 0.2 0 35 -0.2 0 2.14286 4.31429 0 4.28571 3.62857 0 6.42857 2.94286 0 8.57143 2.25714 0 10.7143 1.57143 0 12.8571 0.885714 0 17.8571 0.2 0 20.7143 0.2 0 23.5714 0.2 0 26.4286 0.2 0 29.2857 0.2 0 32.1429 0.2 0 32.1429 -0.2 0 29.2857 -0.2 0 26.4286 -0.2 0 23.5714 -0.2 0 20.7143 -0.2 0 17.8571 -0.2 0 12.8571 -0.885714 0 10.7143 -1.57143 0 8.57143 -2.25714 0 6.42857 -2.94286 0 4.28571 -3.62857 0 2.14286 -4.31429 0 0 -2.5 0 0 -6.16307e-12 0 0 2.5 0 3.95974 -5.7158e-13 0 13.9286 -3.66374e-15 0 6.61813 2.81487e-12 0 2.86365 2.0434 0 2.86365 -2.0434 0 9.43036 1.987e-12 0 11.3926 2.79508e-14 0 4.83116 1.72297 0 4.83116 -1.72297 0 1.90629 -3.21031e-12 0 33.5714 0 0 16.4286 -1.80625e-18 0 25 6.93889e-18 0 19.2857 -6.93889e-18 0 30.7143 0 0 22.1429 0 0 27.8571 0 0 
        </DataArray>
      </Points>
      <Cells>
        <DataArray type="Int32" Name="connectivity" format="ascii">
          8 9 35 26 27 35 8 35 40 27 41 35 30 42 37 32 36 42 33 40 35 33 35 41 29 30 37 6 36 32 30 31 42 31 32 42 0 6 32 30 29 1 26 35 38 9 38 35 6 7 36 28 29 37 7 40 36 33 41 37 33 36 40 28 37 41 9 10 38 25 26 38 33 42 36 33 37 42 11 34 24 24 25 39 10 11 39 25 38 39 10 39 38 11 24 39 27 28 41 7 8 40 2 34 11 3 24 34 2 3 34 2 44 12 3 23 44 4 17 43 5 43 18 12 46 13 13 48 14 14 45 15 15 49 16 16 47 17 18 47 19 19 49 20 20 45 21 21 48 22 22 46 23 2 3 44 4 43 5 12 44 23 12 23 46 13 46 22 13 22 48 14 21 45 14 48 21 15 45 20 15 20 49 16 19 47 16 49 19 17 18 43 17 47 18 
        </DataArray>
        <DataArray type="Int32" Name="offsets" format="ascii">
          3 6 9 12 15 18 21 24 27 30 33 36 39 42 45 48 51 54 57 60 63 66 69 72 75 78 81 84 87 90 93 96 99 102 105 108 111 114 117 120 123 126 129 132 135 138 141 144 147 150 153 156 159 162 165 168 171 174 177 180 183 186 189 192 195 
        </DataArray>
        <DataArray type="UInt8" Name="types" format="ascii">
          5 5 5 5 5 5 5 5 5 5 5 5 5 5 5 5 5 5 5 5 5 5 5 5 5 5 5 5 5 5 5 5 5 5 5 5 5 5 5 5 5 5 5 5 5 5 5 5 5 5 5 5 5 5 5 5 5 5 5 5 5 5 5 5 5 
        </DataArray>
      </Cells>
      <CellData>
        <DataArray type="Float32" Name="F0_Alpha_SG_co2liq_mod.xml" format="ascii">
1.72506e-10 1.72549e-10 1.71758e-10 1.72063e-10 1.65238e-10 1.65172e-10 1.69115e-10 1.68934e-10 1.64198e-10 1.6403e-10 1.67748e-10 1.67749e-10 1.62626e-10 1.62925e-10 1.72682e-10 1.7266e-10 1.636e-10 1.63148e-10 1.64597e-10 1.65321e-10 1.6553e-10 1.64253e-10 1.72682e-10 1.72682e-10 1.65265e-10 1.65304e-10 1.72682e-10 1.72682e-10 1.72682e-10 1.72682e-10 1.72683e-10 1.72682e-10 1.68965e-10 1.69061e-10 1.72682e-10 1.72682e-10 1.72682e-10 1.72682e-10 1.72682e-10 1.7328e-10 1.7328e-10 1.72682e-10 1.72682e-10 1.72683e-10 1.72703e-10 1.72853e-10 1.72853e-10 1.72703e-10 1.72683e-10 1.72682e-10 1.72682e-10 1.72682e-10 1.73321e-10 1.72682e-10 1.72682e-10 1.72682e-10 1.72682e-10 1.72683e-10 1.72682e-10 1.72684e-10 1.72695e-10 1.72808e-10 1.72713e-10 1.73196e-10 1.72899e-10 
        </DataArray>
        <DataArray type="Float32" Name="F0_Density_SG_co2liq_mod.xml" format="ascii">
5908.12 5905.5 5952.35 5934.02 6479.06 6483.19 6105.55 6115.85 6547.8 6557.12 6345.81 6345.79 6682.57 6662.59 5897.13 5898.51 6508.54 6537.72 6381.34 6367.4 6355.15 6400.67 5897.12 5897.12 6419.42 6416.92 5897.13 5897.13 5897.13 5897.13 5897.09 5897.13 6107.05 6100.38 5897.13 5897.13 5897.13 5897.13 5897.13 5856.44 5856.44 5897.13 5897.13 5897.05 5895.78 5886.06 5886.08 5895.78 5897.05 5897.13 5897.13 5897.13 5849.57 5897.13 5897.13 5897.13 5897.13 5897.08 5897.12 5896.99 5896.27 5889 5895.16 5862.61 5882.98 
        </DataArray>
        <DataArray type="Float32" Name="F0_Temperature_SG_co2liq_mod.xml" format="ascii">
41.8138 41.8062 41.9243 41.8822 42.4129 42.4146 42.1614 42.1727 42.4377 42.4408 42.3508 42.3508 42.4757 42.4708 41.7807 41.785 42.4241 42.4344 42.3695 42.3624 42.3559 42.379 41.7806 41.7806 42.3877 42.3866 41.7807 41.7807 41.7807 41.7807 41.7805 41.7807 42.163 42.1555 41.7807 41.7807 41.7807 41.7807 41.7807 41.625 41.6251 41.7807 41.7807 41.7804 41.7764 41.7442 41.7443 41.7764 41.7804 41.7807 41.7807 41.7807 41.591 41.7807 41.7807 41.7807 41.7807 41.7805 41.7807 41.7802 41.778 41.7542 41.7744 41.6532 41.7334 
        </DataArray>
        <DataArray type="Float32" Name="F0_Mass fraction_SG_co2liq_mod.xml" format="ascii">
9.16269e-09 9.26009e-09 7.85171e-09 8.35531e-09 2.50615e-09 2.49668e-09 5.36602e-09 5.2609e-09 2.34961e-09 2.33474e-09 2.76854e-09 2.76862e-09 2.03713e-09 2.06849e-09 9.59424e-09 9.53691e-09 2.68851e-09 2.61217e-09 3.43358e-09 3.30456e-09 3.35063e-09 3.36442e-09 9.59493e-09 9.59472e-09 2.87874e-09 2.88659e-09 9.5944e-09 9.5944e-09 9.5946e-09 9.59451e-09 9.59626e-09 9.59441e-09 5.46967e-09 5.56466e-09 9.5944e-09 9.5944e-09 9.5944e-09 9.5944e-09 9.5944e-09 1.18779e-08 1.18777e-08 9.5944e-09 9.59452e-09 9.5979e-09 9.65159e-09 1.00929e-08 1.00915e-08 9.6517e-09 9.59793e-09 9.59452e-09 9.5944e-09 9.5944e-09 1.26826e-08 9.5944e-09 9.5944e-09 9.59441e-09 9.59446e-09 9.5963e-09 9.59464e-09 9.6004e-09 9.63058e-09 9.9533e-09 9.6782e-09 1.14317e-08 1.02469e-08 
        </DataArray>
        <DataArray type="Float32" Name="F1_Alpha_SG_co2gas_mod.xml" format="ascii">
1 1 1 1 1 1 1 1 1 1 1 1 1 1 1 1 1 1 1 1 1 1 1 1 1 1 1 1 1 1 1 1 1 1 1 1 1 1 1 1 1 1 1 1 1 1 1 1 1 1 1 1 1 1 1 1 1 1 1 1 1 1 1 1 1 
        </DataArray>
        <DataArray type="Float32" Name="F1_Density_SG_co2gas_mod.xml" format="ascii">
111.232 110.041 130.209 122.201 427.185 428.907 192.422 196.388 457.581 460.68 384.498 384.486 533.475 524.78 106.14 106.789 396.053 408.326 305.905 318.549 313.962 312.484 106.132 106.134 368.532 367.473 106.138 106.138 106.135 106.137 106.117 106.138 188.654 185.336 106.138 106.138 106.138 106.138 106.138 85.4363 85.4378 106.138 106.136 106.098 105.498 100.806 100.82 105.496 106.098 106.136 106.138 106.138 79.9405 106.138 106.138 106.138 106.137 106.116 106.135 106.07 105.732 102.244 105.202 88.8218 99.2655 
        </DataArray>
        <DataArray type="Float32" Name="F1_Temperature_SG_co2gas_mod.xml" format="ascii">
467.873 467.489 474.414 473.174 373.987 374.167 479.763 480.037 375.248 376.227 354.482 354.481 365.316 364.855 466.386 466.559 416.347 416.24 466.159 439.905 439.408 467.266 466.384 466.384 405.162 405.134 466.385 466.385 466.385 466.385 466.38 466.385 490.863 492.799 466.385 466.385 466.385 466.385 466.385 460.759 460.759 466.385 466.385 466.375 466.216 464.97 464.97 466.216 466.375 466.385 466.385 466.385 468.88 466.385 466.385 466.385 466.385 466.38 466.385 466.368 466.278 465.349 466.142 461.627 464.683 
        </DataArray>
        <DataArray type="Float32" Name="F1_Mass fraction_SG_co2gas_mod.xml" format="ascii">
1 1 1 1 1 1 1 1 1 1 1 1 1 1 1 1 1 1 1 1 1 1 1 1 1 1 1 1 1 1 1 1 1 1 1 1 1 1 1 1 1 1 1 1 1 1 1 1 1 1 1 1 1 1 1 1 1 1 1 1 1 1 1 1 1 
        </DataArray>
        <DataArray type="Float32" Name="Density_Mixture" format="ascii">
111.232 110.041 130.209 122.201 427.185 428.907 192.422 196.388 457.581 460.68 384.498 384.486 533.475 524.78 106.14 106.789 396.053 408.326 305.905 318.549 313.962 312.484 106.132 106.134 368.532 367.473 106.138 106.138 106.135 106.137 106.117 106.138 188.654 185.336 106.138 106.138 106.138 106.138 106.138 85.4363 85.4378 106.138 106.136 106.098 105.498 100.806 100.82 105.496 106.098 106.136 106.138 106.138 79.9405 106.138 106.138 106.138 106.137 106.116 106.135 106.07 105.732 102.244 105.202 88.8218 99.2655 
        </DataArray>
        <DataArray type="Float32" Name="Pressure_Mixture" format="ascii">
6.63937e+06 6.55263e+06 8.04639e+06 7.47509e+06 2.22155e+07 2.23198e+07 1.24631e+07 1.27459e+07 2.39427e+07 2.41761e+07 1.88226e+07 1.8822e+07 2.72947e+07 2.68003e+07 6.27199e+06 6.31847e+06 2.29579e+07 2.36905e+07 1.97341e+07 1.9377e+07 1.90626e+07 2.02275e+07 6.27143e+06 6.2716e+06 2.0705e+07 2.06414e+07 6.27186e+06 6.27186e+06 6.2717e+06 6.27177e+06 6.27036e+06 6.27185e+06 1.25044e+07 1.23208e+07 6.27186e+06 6.27186e+06 6.27186e+06 6.27186e+06 6.27186e+06 4.80625e+06 4.80636e+06 6.27186e+06 6.27176e+06 6.26904e+06 6.22611e+06 5.89164e+06 5.89259e+06 6.22603e+06 6.26902e+06 6.27176e+06 6.27186e+06 6.27186e+06 4.53397e+06 6.27186e+06 6.27186e+06 6.27185e+06 6.27181e+06 6.27033e+06 6.27166e+06 6.26703e+06 6.24285e+06 5.99397e+06 6.20508e+06 5.04297e+06 5.78395e+06 
        </DataArray>
        <DataArray type="Float32" Name="Velocity_Mixture" NumberOfComponents="3" format="ascii">
13.9094 -0.440548 0 7.54452 1.8364 0 53.1899 -4.56787 0 38.238 -9.99161 0 321.21 12.3595 0 321.861 -14.9561 0 174.304 -7.41283 0 179.808 8.32008 0 309.482 44.3632 0 309.117 -44.077 0 343.364 0.0989035 0 343.366 -0.0967596 0 291.162 -43.0337 0 292.68 45.6832 0 -0.0352903 -0.341953 0 1.47161 -0.803273 0 284.851 -59.7257 0 287.023 76.0848 0 261.515 -47.4819 0 264.991 16.7801 0 267.771 -9.40532 0 252.815 72.6841 0 -0.119224 -0.0996925 0 -0.00084016 -0.00552492 0 290.136 -17.2508 0 290.253 18.777 0 0 0 0 -9.97712e-06 3.1239e-05 0 -0.00525975 -0.00151772 0 0.000572803 0.00737289 0 -0.042313 0.0345006 0 -0.000147809 0.00023264 0 134.89 46.2541 0 161.331 -20.257 0 0 0 0 0 0 0 0 0 0 0 0 0 0 0 0 21.7574 -0.855227 0 21.7599 0.860099 0 0 -1.22926e-05 0 0.000605736 -0.000538164 0 0.0196635 -0.0118238 0 0.35488 -0.13034 0 3.5627 -0.612128 0 3.60068 0.596796 0 0.371381 0.125083 0 0.0210421 0.0114445 0 0.000668773 0.000530197 0 0 1.39211e-05 0 0 0 0 63.0592 0.00578144 0 0 0 0 0 0 0 0.000244602 0 0 0.000461605 5.99962e-05 0 0.0185754 0.00200356 0 0.0117613 -0.000344656 0 0.30249 -0.00782258 0 0.418804 0.0309629 0 5.27865 0.157806 0 4.20798 -0.0885267 0 36.2274 -0.00455721 0 28.482 -0.176771 0 
        </DataArray>
        <DataArray type="Float32" Name="gradRho" format="ascii">
6.19056 4.14058 22.7085 23.5466 21.2218 21.8029 59.4552 62.2245 37.9893 44.238 29.6478 30.8496 17.1863 15.865 0.969 1.52508 39.8249 36.2574 74.1292 57.0578 58.627 77.1467 0.225973 0.00135272 38.2043 36.1113 4.31851e-05 0.000451056 0.00729174 0.00910245 0.0067521 0.000957316 52.4282 49.5731 1.02471e-06 1.14301e-06 1.52545e-07 1.08355e-07 9.02399e-08 0.83968 0.840198 7.69172e-06 0.000220856 0.00422139 0.0412779 0.216331 0.217316 0.0410482 0.00411314 0.000210909 6.29506e-06 3.78992e-08 0.792459 3.09637e-06 4.8483e-06 0.000200726 0.000268528 0.00828118 0.0066601 0.121108 0.140999 1.17293 1.06364 3.98062 3.80403 
        </DataArray>
      </CellData>
    </Piece>
  </UnstructuredGrid>
</VTKFile>
