<?xml version="1.0"?>
<VTKFile type="UnstructuredGrid" version="0.1" byte_order="LittleEndian">
  <UnstructuredGrid>
    <Piece NumberOfPoints="50" NumberOfCells="65">
      <Points>
        <DataArray type="Float32" NumberOfComponents="3" format="ascii">
          0 5 0 0 -5 0 15 0.2 0 15 -0.2 0 35 0.2 0 35 -0.2 0 2.14286 4.31429 0 4.28571 3.62857 0 6.42857 2.94286 0 8.57143 2.25714 0 10.7143 1.57143 0 12.8571 0.885714 0 17.8571 0.2 0 20.7143 0.2 0 23.5714 0.2 0 26.4286 0.2 0 29.2857 0.2 0 32.1429 0.2 0 32.1429 -0.2 0 29.2857 -0.2 0 26.4286 -0.2 0 23.5714 -0.2 0 20.7143 -0.2 0 17.8571 -0.2 0 12.8571 -0.885714 0 10.7143 -1.57143 0 8.57143 -2.25714 0 6.42857 -2.94286 0 4.28571 -3.62857 0 2.14286 -4.31429 0 0 -2.5 0 0 -6.16307e-12 0 0 2.5 0 3.95974 -5.7158e-13 0 13.9286 -3.66374e-15 0 6.61813 2.81487e-12 0 2.86365 2.0434 0 2.86365 -2.0434 0 9.43036 1.987e-12 0 11.3926 2.79508e-14 0 4.83116 1.72297 0 4.83116 -1.72297 0 1.90629 -3.21031e-12 0 33.5714 0 0 16.4286 -1.80625e-18 0 25 6.93889e-18 0 19.2857 -6.93889e-18 0 30.7143 0 0 22.1429 0 0 27.8571 0 0 
        </DataArray>
      </Points>
      <Cells>
        <DataArray type="Int32" Name="connectivity" format="ascii">
          8 9 35 26 27 35 8 35 40 27 41 35 30 42 37 32 36 42 33 40 35 33 35 41 29 30 37 6 36 32 30 31 42 31 32 42 0 6 32 30 29 1 26 35 38 9 38 35 6 7 36 28 29 37 7 40 36 33 41 37 33 36 40 28 37 41 9 10 38 25 26 38 33 42 36 33 37 42 11 34 24 24 25 39 10 11 39 25 38 39 10 39 38 11 24 39 27 28 41 7 8 40 2 34 11 3 24 34 2 3 34 2 44 12 3 23 44 4 17 43 5 43 18 12 46 13 13 48 14 14 45 15 15 49 16 16 47 17 18 47 19 19 49 20 20 45 21 21 48 22 22 46 23 2 3 44 4 43 5 12 44 23 12 23 46 13 46 22 13 22 48 14 21 45 14 48 21 15 45 20 15 20 49 16 19 47 16 49 19 17 18 43 17 47 18 
        </DataArray>
        <DataArray type="Int32" Name="offsets" format="ascii">
          3 6 9 12 15 18 21 24 27 30 33 36 39 42 45 48 51 54 57 60 63 66 69 72 75 78 81 84 87 90 93 96 99 102 105 108 111 114 117 120 123 126 129 132 135 138 141 144 147 150 153 156 159 162 165 168 171 174 177 180 183 186 189 192 195 
        </DataArray>
        <DataArray type="UInt8" Name="types" format="ascii">
          5 5 5 5 5 5 5 5 5 5 5 5 5 5 5 5 5 5 5 5 5 5 5 5 5 5 5 5 5 5 5 5 5 5 5 5 5 5 5 5 5 5 5 5 5 5 5 5 5 5 5 5 5 5 5 5 5 5 5 5 5 5 5 5 5 
        </DataArray>
      </Cells>
      <CellData>
        <DataArray type="Float32" Name="F0_Alpha_SG_co2liq_mod.xml" format="ascii">
1.7268e-10 1.72681e-10 1.72658e-10 1.72672e-10 1.65698e-10 1.6581e-10 1.72313e-10 1.72309e-10 1.65603e-10 1.65278e-10 1.67732e-10 1.67733e-10 1.64379e-10 1.64661e-10 1.72682e-10 1.72682e-10 1.67496e-10 1.66363e-10 1.70568e-10 1.69852e-10 1.69774e-10 1.70874e-10 1.72682e-10 1.72682e-10 1.6775e-10 1.67729e-10 1.72682e-10 1.72682e-10 1.72682e-10 1.72682e-10 1.72682e-10 1.72682e-10 1.72624e-10 1.72484e-10 1.72682e-10 1.72682e-10 1.72682e-10 1.72682e-10 1.72682e-10 1.73152e-10 1.73152e-10 1.72682e-10 1.72682e-10 1.72682e-10 1.72686e-10 1.72753e-10 1.72753e-10 1.72686e-10 1.72682e-10 1.72682e-10 1.72682e-10 1.72682e-10 1.7321e-10 1.72682e-10 1.72682e-10 1.72682e-10 1.72682e-10 1.72682e-10 1.72682e-10 1.72682e-10 1.72684e-10 1.72728e-10 1.72689e-10 1.73059e-10 1.72784e-10 
        </DataArray>
        <DataArray type="Float32" Name="F0_Density_SG_co2liq_mod.xml" format="ascii">
5897.28 5897.2 5898.67 5897.75 6418.6 6411.41 5919.7 5919.99 6410.5 6430.51 6336.29 6336.25 6549.01 6530.55 5897.13 5897.14 6215.3 6284.56 6019.83 6064.76 6069.23 6002.35 5897.13 5897.13 6208.1 6208.96 5897.13 5897.13 5897.13 5897.13 5897.13 5897.13 5900.69 5909.36 5897.13 5897.13 5897.13 5897.13 5897.13 5865.79 5865.79 5897.13 5897.13 5897.12 5896.88 5892.57 5892.58 5896.88 5897.12 5897.13 5897.13 5897.13 5858.18 5897.13 5897.13 5897.13 5897.13 5897.13 5897.13 5897.12 5897 5894.21 5896.68 5872.3 5890.59 
        </DataArray>
        <DataArray type="Float32" Name="F0_Temperature_SG_co2liq_mod.xml" format="ascii">
41.7811 41.7809 41.7855 41.7826 42.3873 42.384 41.8459 41.8467 42.3836 42.3927 42.3455 42.3455 42.4381 42.4319 41.7807 41.7807 42.2646 42.3142 42.0482 42.1122 42.1179 42.0199 41.7807 41.7807 42.2589 42.2595 41.7807 41.7807 41.7807 41.7807 41.7807 41.7807 41.7917 41.8173 41.7807 41.7807 41.7807 41.7807 41.7807 41.6668 41.6669 41.7807 41.7807 41.7807 41.7799 41.7661 41.7661 41.7799 41.7807 41.7807 41.7807 41.7807 41.6332 41.7807 41.7807 41.7807 41.7807 41.7807 41.7807 41.7806 41.7803 41.7714 41.7793 41.6935 41.7595 
        </DataArray>
        <DataArray type="Float32" Name="F0_Mass fraction_SG_co2liq_mod.xml" format="ascii">
9.58821e-09 9.59146e-09 9.53031e-09 9.56862e-09 2.77314e-09 2.79458e-09 8.76903e-09 8.75964e-09 2.85407e-09 2.79618e-09 2.83864e-09 2.83879e-09 2.31261e-09 2.3506e-09 9.59446e-09 9.59409e-09 4.24882e-09 3.82103e-09 6.53657e-09 5.81043e-09 5.75519e-09 6.83427e-09 9.5944e-09 9.5944e-09 4.21851e-09 4.21696e-09 9.5944e-09 9.5944e-09 9.5944e-09 9.5944e-09 9.5944e-09 9.5944e-09 9.45237e-09 9.12429e-09 9.5944e-09 9.5944e-09 9.5944e-09 9.5944e-09 9.5944e-09 1.12231e-08 1.12229e-08 9.5944e-09 9.5944e-09 9.59466e-09 9.60491e-09 9.79127e-09 9.79114e-09 9.60503e-09 9.59466e-09 9.5944e-09 9.5944e-09 9.5944e-09 1.19613e-08 9.5944e-09 9.5944e-09 9.5944e-09 9.5944e-09 9.5945e-09 9.59441e-09 9.59498e-09 9.59972e-09 9.71934e-09 9.61342e-09 1.08213e-08 9.88165e-09 
        </DataArray>
        <DataArray type="Float32" Name="F1_Alpha_SG_co2gas_mod.xml" format="ascii">
1 1 1 1 1 1 1 1 1 1 1 1 1 1 1 1 1 1 1 1 1 1 1 1 1 1 1 1 1 1 1 1 1 1 1 1 1 1 1 1 1 1 1 1 1 1 1 1 1 1 1 1 1 1 1 1 1 1 1 1 1 1 1 1 1 
        </DataArray>
        <DataArray type="Float32" Name="F1_Density_SG_co2gas_mod.xml" format="ascii">
106.208 106.171 106.864 106.429 383.518 380.406 116.324 116.451 371.959 380.097 374.405 374.384 465.499 457.468 106.137 106.141 245.019 273.623 157.085 177.287 179.038 150.074 106.138 106.138 246.867 246.96 106.138 106.138 106.138 106.138 106.138 106.138 107.762 111.709 106.138 106.138 106.138 106.138 106.138 90.4985 90.4999 106.138 106.138 106.135 106.019 103.966 103.968 106.018 106.135 106.138 106.138 106.138 84.8313 106.138 106.138 106.138 106.138 106.137 106.138 106.131 106.078 104.749 105.924 93.9119 102.999 
        </DataArray>
        <DataArray type="Float32" Name="F1_Temperature_SG_co2gas_mod.xml" format="ascii">
466.404 466.394 466.581 466.465 388.954 388.81 469.897 469.928 397.21 397.962 359.51 359.509 369.316 368.808 466.385 466.386 460.239 458.063 481.576 476.543 476.726 480.669 466.385 466.385 451.448 451.915 466.385 466.385 466.385 466.385 466.385 466.385 467.055 468.403 466.385 466.385 466.385 466.385 466.385 462.188 462.189 466.385 466.385 466.385 466.354 465.812 465.812 466.354 466.385 466.385 466.385 466.385 469.556 466.385 466.385 466.385 466.385 466.385 466.385 466.384 466.37 466.018 466.329 463.072 465.605 
        </DataArray>
        <DataArray type="Float32" Name="F1_Mass fraction_SG_co2gas_mod.xml" format="ascii">
1 1 1 1 1 1 1 1 1 1 1 1 1 1 1 1 1 1 1 1 1 1 1 1 1 1 1 1 1 1 1 1 1 1 1 1 1 1 1 1 1 1 1 1 1 1 1 1 1 1 1 1 1 1 1 1 1 1 1 1 1 1 1 1 1 
        </DataArray>
        <DataArray type="Float32" Name="Density_Mixture" format="ascii">
106.208 106.171 106.864 106.429 383.518 380.406 116.324 116.451 371.959 380.097 374.405 374.384 465.499 457.468 106.137 106.141 245.019 273.623 157.085 177.287 179.038 150.074 106.138 106.138 246.867 246.96 106.138 106.138 106.138 106.138 106.138 106.138 107.762 111.709 106.138 106.138 106.138 106.138 106.138 90.4985 90.4999 106.138 106.138 106.135 106.019 103.966 103.968 106.018 106.135 106.138 106.138 106.138 84.8313 106.138 106.138 106.138 106.138 106.137 106.138 106.131 106.078 104.749 105.924 93.9119 102.999 
        </DataArray>
        <DataArray type="Float32" Name="Pressure_Mixture" format="ascii">
6.27685e+06 6.27422e+06 6.32389e+06 6.29272e+06 2.06841e+07 2.05012e+07 7.01784e+06 7.027e+06 2.0478e+07 2.09868e+07 1.85775e+07 1.85764e+07 2.39731e+07 2.35106e+07 6.27181e+06 6.2721e+06 1.54201e+07 1.72376e+07 1.00527e+07 1.13305e+07 1.14559e+07 9.54482e+06 6.27185e+06 6.27186e+06 1.52294e+07 1.52521e+07 6.27186e+06 6.27186e+06 6.27186e+06 6.27186e+06 6.27186e+06 6.27186e+06 6.39179e+06 6.6802e+06 6.27186e+06 6.27186e+06 6.27186e+06 6.27186e+06 6.27186e+06 5.16224e+06 5.16233e+06 6.27186e+06 6.27186e+06 6.27165e+06 6.2634e+06 6.11678e+06 6.11688e+06 6.26331e+06 6.27165e+06 6.27185e+06 6.27186e+06 6.27186e+06 4.87386e+06 6.27186e+06 6.27186e+06 6.27186e+06 6.27186e+06 6.27177e+06 6.27185e+06 6.27139e+06 6.26758e+06 6.17265e+06 6.25659e+06 5.40236e+06 6.04853e+06 
        </DataArray>
        <DataArray type="Float32" Name="Velocity_Mixture" NumberOfComponents="3" format="ascii">
0.180028 0.00338348 0 0.0677169 0.00789726 0 1.44714 0.265393 0 0.723033 -1.18082 0 305.097 2.26576 0 306.625 -1.11827 0 26.4797 -4.31765 0 26.9985 4.04615 0 298.251 43.9242 0 295.741 -40.1879 0 340.697 0.149724 0 340.694 -0.151844 0 303.562 -42.8568 0 303.29 48.7451 0 -0.00123921 -0.00159829 0 0.00680236 -0.00515008 0 219.155 -32.4796 0 214.51 66.0822 0 112.766 -16.037 0 148.464 -12.8291 0 146.441 11.0878 0 82.7841 21.3133 0 -0.000273289 -0.00017559 0 -4.93275e-05 1.27051e-05 0 226.639 -23.0045 0 228.171 25.7571 0 0 0 0 0 0 0 0 0 0 0 1.91482e-06 0 -6.31202e-05 4.83623e-05 0 0 0 0 3.23459 -0.517287 0 14.4128 1.43285 0 0 0 0 0 0 0 0 0 0 0 0 0 0 0 0 12.682 -1.15061 0 12.6821 1.15266 0 0 0 0 0 -1.99496e-05 0 0.00124422 -0.00138928 0 0.0566842 -0.0398622 0 1.18675 -0.429328 0 1.24838 0.407227 0 0.0612305 0.0385751 0 0.00139194 0.00137686 0 0 2.28601e-05 0 0 0 0 0 0 0 52.4133 0.00224491 0 0 0 0 0 0 0 0 0 0 0 0 0 0.000799611 0.000130342 0 0.000371239 0 0 0.0274944 -0.000894471 0 0.0476118 0.0061741 0 1.37145 0.123833 0 0.957628 -0.0263761 0 18.5829 -0.00441856 0 14.2689 -0.324897 0 
        </DataArray>
        <DataArray type="Float32" Name="gradRho" format="ascii">
0.200103 0.0798289 2.41812 2.66899 42.6685 43.182 25.894 25.2909 53.4077 67.4112 6.33101 4.18036 20.1625 20.1879 0.00837958 0.0199441 61.9818 57.6681 41.4794 44.9604 44.3526 49.7401 0.00118245 0.000224541 67.1855 68.8099 5.35042e-10 2.83143e-07 1.16198e-05 1.2744e-05 2.51324e-05 2.1141e-07 14.9625 16.4554 1.46489e-11 1.46489e-11 0 8.3895e-10 8.3895e-10 0.874747 0.87521 1.04169e-07 1.31494e-05 0.000620128 0.0146227 0.134829 0.135094 0.0142049 0.000584155 1.08484e-05 8.74069e-08 0 0.81716 1.71789e-08 3.14473e-08 3.38972e-06 6.23559e-06 0.000542842 0.000377252 0.0190194 0.0243615 0.486395 0.42031 3.50837 3.27342 
        </DataArray>
      </CellData>
    </Piece>
  </UnstructuredGrid>
</VTKFile>
