<?xml version="1.0"?>
<VTKFile type="UnstructuredGrid" version="0.1" byte_order="LittleEndian">
  <UnstructuredGrid>
    <Piece NumberOfPoints="50" NumberOfCells="65">
      <Points>
        <DataArray type="Float32" NumberOfComponents="3" format="ascii">
          0 5 0 0 -5 0 15 0.2 0 15 -0.2 0 35 0.2 0 35 -0.2 0 2.14286 4.31429 0 4.28571 3.62857 0 6.42857 2.94286 0 8.57143 2.25714 0 10.7143 1.57143 0 12.8571 0.885714 0 17.8571 0.2 0 20.7143 0.2 0 23.5714 0.2 0 26.4286 0.2 0 29.2857 0.2 0 32.1429 0.2 0 32.1429 -0.2 0 29.2857 -0.2 0 26.4286 -0.2 0 23.5714 -0.2 0 20.7143 -0.2 0 17.8571 -0.2 0 12.8571 -0.885714 0 10.7143 -1.57143 0 8.57143 -2.25714 0 6.42857 -2.94286 0 4.28571 -3.62857 0 2.14286 -4.31429 0 0 -2.5 0 0 -6.16307e-12 0 0 2.5 0 3.95974 -5.7158e-13 0 13.9286 -3.66374e-15 0 6.61813 2.81487e-12 0 2.86365 2.0434 0 2.86365 -2.0434 0 9.43036 1.987e-12 0 11.3926 2.79508e-14 0 4.83116 1.72297 0 4.83116 -1.72297 0 1.90629 -3.21031e-12 0 33.5714 0 0 16.4286 -1.80625e-18 0 25 6.93889e-18 0 19.2857 -6.93889e-18 0 30.7143 0 0 22.1429 0 0 27.8571 0 0 
        </DataArray>
      </Points>
      <Cells>
        <DataArray type="Int32" Name="connectivity" format="ascii">
          8 9 35 26 27 35 8 35 40 27 41 35 30 42 37 32 36 42 33 40 35 33 35 41 29 30 37 6 36 32 30 31 42 31 32 42 0 6 32 30 29 1 26 35 38 9 38 35 6 7 36 28 29 37 7 40 36 33 41 37 33 36 40 28 37 41 9 10 38 25 26 38 33 42 36 33 37 42 11 34 24 24 25 39 10 11 39 25 38 39 10 39 38 11 24 39 27 28 41 7 8 40 2 34 11 3 24 34 2 3 34 2 44 12 3 23 44 4 17 43 5 43 18 12 46 13 13 48 14 14 45 15 15 49 16 16 47 17 18 47 19 19 49 20 20 45 21 21 48 22 22 46 23 2 3 44 4 43 5 12 44 23 12 23 46 13 46 22 13 22 48 14 21 45 14 48 21 15 45 20 15 20 49 16 19 47 16 49 19 17 18 43 17 47 18 
        </DataArray>
        <DataArray type="Int32" Name="offsets" format="ascii">
          3 6 9 12 15 18 21 24 27 30 33 36 39 42 45 48 51 54 57 60 63 66 69 72 75 78 81 84 87 90 93 96 99 102 105 108 111 114 117 120 123 126 129 132 135 138 141 144 147 150 153 156 159 162 165 168 171 174 177 180 183 186 189 192 195 
        </DataArray>
        <DataArray type="UInt8" Name="types" format="ascii">
          5 5 5 5 5 5 5 5 5 5 5 5 5 5 5 5 5 5 5 5 5 5 5 5 5 5 5 5 5 5 5 5 5 5 5 5 5 5 5 5 5 5 5 5 5 5 5 5 5 5 5 5 5 5 5 5 5 5 5 5 5 5 5 5 5 
        </DataArray>
      </Cells>
      <CellData>
        <DataArray type="Float32" Name="F0_Alpha_SG_co2liq_mod.xml" format="ascii">
1.70971e-10 1.709e-10 1.67808e-10 1.68239e-10 1.65026e-10 1.64947e-10 1.65597e-10 1.65162e-10 1.6358e-10 1.63494e-10 1.67773e-10 1.67773e-10 1.61344e-10 1.61644e-10 1.72585e-10 1.72367e-10 1.62544e-10 1.62642e-10 1.62339e-10 1.63211e-10 1.63778e-10 1.61862e-10 1.7267e-10 1.72683e-10 1.64389e-10 1.64471e-10 1.72682e-10 1.72682e-10 1.72684e-10 1.72684e-10 1.72695e-10 1.72682e-10 1.63298e-10 1.63674e-10 1.72682e-10 1.72682e-10 1.72682e-10 1.72682e-10 1.72682e-10 1.7335e-10 1.7335e-10 1.72682e-10 1.72682e-10 1.72687e-10 1.72733e-10 1.72948e-10 1.72948e-10 1.72733e-10 1.72687e-10 1.72682e-10 1.72682e-10 1.72682e-10 1.73382e-10 1.72682e-10 1.72682e-10 1.72682e-10 1.72682e-10 1.72685e-10 1.72683e-10 1.7269e-10 1.72718e-10 1.72891e-10 1.7275e-10 1.73278e-10 1.73002e-10 
        </DataArray>
        <DataArray type="Float32" Name="F0_Density_SG_co2liq_mod.xml" format="ascii">
5996.61 6000.79 6169.25 6144.51 6509.3 6514.37 6331.51 6356.79 6611.25 6615.97 6347.44 6347.42 6776.59 6756.14 5903.26 5916.69 6622.69 6619.58 6575.45 6542.64 6510.07 6603.4 5897.92 5897.04 6510.82 6506.51 5897.13 5897.13 5896.98 5897.02 5896.31 5897.12 6438.28 6415.66 5897.13 5897.13 5897.13 5897.13 5897.13 5851.11 5851.11 5897.13 5897.11 5896.8 5893.86 5879.78 5879.78 5893.86 5896.8 5897.11 5897.13 5897.13 5844.81 5897.13 5897.13 5897.13 5897.12 5896.92 5897.1 5896.63 5894.85 5883.6 5892.75 5856.67 5876.06 
        </DataArray>
        <DataArray type="Float32" Name="F0_Temperature_SG_co2liq_mod.xml" format="ascii">
42.01 42.0172 42.2256 42.2022 42.4244 42.4262 42.3428 42.3568 42.4572 42.4585 42.3517 42.3517 42.4955 42.4916 41.7995 41.8378 42.4604 42.4595 42.4466 42.436 42.4247 42.4549 41.7831 41.7804 42.4249 42.4234 41.7807 41.7807 41.7802 41.7803 41.7781 41.7806 42.3961 42.386 41.7807 41.7807 41.7807 41.7807 41.7807 41.5989 41.5989 41.7807 41.7806 41.7796 41.7702 41.7219 41.7218 41.7703 41.7796 41.7806 41.7807 41.7807 41.5654 41.7807 41.7807 41.7807 41.7806 41.78 41.7806 41.7791 41.7734 41.7356 41.7667 41.6261 41.708 
        </DataArray>
        <DataArray type="Float32" Name="F0_Mass fraction_SG_co2liq_mod.xml" format="ascii">
6.94289e-09 6.86285e-09 4.92801e-09 5.15341e-09 2.38891e-09 2.37822e-09 3.58128e-09 3.4751e-09 2.17146e-09 2.16528e-09 2.75168e-09 2.75175e-09 1.88952e-09 1.91692e-09 9.34639e-09 8.85995e-09 2.28796e-09 2.28524e-09 2.5692e-09 2.56942e-09 2.6376e-09 2.5132e-09 9.5614e-09 9.59831e-09 2.50249e-09 2.5096e-09 9.59438e-09 9.59446e-09 9.60063e-09 9.59882e-09 9.62887e-09 9.59487e-09 3.34286e-09 3.43223e-09 9.59439e-09 9.5944e-09 9.5944e-09 9.5944e-09 9.5944e-09 1.23047e-08 1.23046e-08 9.59443e-09 9.59524e-09 9.60845e-09 9.73471e-09 1.04084e-08 1.04085e-08 9.73442e-09 9.6085e-09 9.59525e-09 9.59443e-09 9.5944e-09 1.31242e-08 9.5944e-09 9.59442e-09 9.59446e-09 9.59486e-09 9.60309e-09 9.59584e-09 9.61557e-09 9.69159e-09 1.0213e-08 9.78364e-09 1.18573e-08 1.06124e-08 
        </DataArray>
        <DataArray type="Float32" Name="F1_Alpha_SG_co2gas_mod.xml" format="ascii">
1 1 1 1 1 1 1 1 1 1 1 1 1 1 1 1 1 1 1 1 1 1 1 1 1 1 1 1 1 1 1 1 1 1 1 1 1 1 1 1 1 1 1 1 1 1 1 1 1 1 1 1 1 1 1 1 1 1 1 1 1 1 1 1 1 
        </DataArray>
        <DataArray type="Float32" Name="F1_Density_SG_co2gas_mod.xml" format="ascii">
147.669 149.433 210.075 200.595 449.664 451.819 292.767 302.12 498.037 499.554 387.01 387 578.644 569.711 109.006 115.107 470.496 471.121 415.479 415.591 404.232 425.291 106.511 106.094 427.698 426.415 106.138 106.137 106.068 106.088 105.751 106.132 314.509 305.946 106.138 106.138 106.138 106.138 106.138 82.4311 82.4316 106.137 106.128 105.98 104.581 97.6992 97.6987 104.584 105.979 106.128 106.137 106.138 77.2151 106.138 106.138 106.137 106.133 106.04 106.122 105.9 105.054 99.6001 104.049 85.5866 95.791 
        </DataArray>
        <DataArray type="Float32" Name="F1_Temperature_SG_co2gas_mod.xml" format="ascii">
480.598 480.611 496.395 496.865 367.004 367.202 456.849 457.596 366.751 367.263 352.929 352.928 364.484 364.101 467.183 469.003 392.401 390.747 424.777 411.012 408.582 426.308 466.481 466.374 386.468 385.877 466.385 466.385 466.367 466.372 466.284 466.384 485.292 485.887 466.385 466.385 466.385 466.385 466.385 459.905 459.905 466.385 466.383 466.344 465.974 464.13 464.126 465.975 466.344 466.383 466.385 466.385 467.957 466.385 466.385 466.385 466.384 466.36 466.381 466.323 466.099 464.633 465.845 460.676 463.805 
        </DataArray>
        <DataArray type="Float32" Name="F1_Mass fraction_SG_co2gas_mod.xml" format="ascii">
1 1 1 1 1 1 1 1 1 1 1 1 1 1 1 1 1 1 1 1 1 1 1 1 1 1 1 1 1 1 1 1 1 1 1 1 1 1 1 1 1 1 1 1 1 1 1 1 1 1 1 1 1 1 1 1 1 1 1 1 1 1 1 1 1 
        </DataArray>
        <DataArray type="Float32" Name="Density_Mixture" format="ascii">
147.669 149.433 210.075 200.595 449.664 451.819 292.767 302.12 498.037 499.554 387.01 387 578.644 569.711 109.006 115.107 470.496 471.121 415.479 415.591 404.232 425.291 106.511 106.094 427.698 426.415 106.138 106.137 106.068 106.088 105.751 106.132 314.509 305.946 106.138 106.138 106.138 106.138 106.138 82.4311 82.4316 106.137 106.128 105.98 104.581 97.6992 97.6987 104.584 105.979 106.128 106.137 106.138 77.2151 106.138 106.138 106.137 106.133 106.04 106.122 105.9 105.054 99.6001 104.049 85.5866 95.791 
        </DataArray>
        <DataArray type="Float32" Name="Pressure_Mixture" format="ascii">
9.37616e+06 9.49908e+06 1.41929e+07 1.35261e+07 2.29771e+07 2.31044e+07 1.84543e+07 1.91048e+07 2.5526e+07 2.56435e+07 1.88645e+07 1.88639e+07 2.96111e+07 2.91087e+07 6.47786e+06 6.92029e+06 2.58105e+07 2.57333e+07 2.46339e+07 2.38135e+07 2.29964e+07 2.53307e+07 6.29847e+06 6.26871e+06 2.30152e+07 2.2907e+07 6.27188e+06 6.27181e+06 6.26685e+06 6.2683e+06 6.24422e+06 6.27148e+06 2.11841e+07 2.06095e+07 6.27186e+06 6.27186e+06 6.27186e+06 6.27186e+06 6.27186e+06 4.59585e+06 4.59589e+06 6.27183e+06 6.27118e+06 6.26056e+06 6.16064e+06 5.67091e+06 5.67081e+06 6.16087e+06 6.26053e+06 6.27118e+06 6.27183e+06 6.27186e+06 4.33889e+06 6.27186e+06 6.27185e+06 6.27181e+06 6.27149e+06 6.26487e+06 6.2707e+06 6.25486e+06 6.19445e+06 5.80573e+06 6.12284e+06 4.81525e+06 5.53833e+06 
        </DataArray>
        <DataArray type="Float32" Name="Velocity_Mixture" NumberOfComponents="3" format="ascii">
103.322 -9.14851 0 82.9232 22.5322 0 184.268 -24.036 0 178.258 22.2547 0 322.841 24.0685 0 322.725 -26.3068 0 266.715 -12.5679 0 271.458 20.8249 0 306.674 47.8032 0 306.855 -48.4812 0 343.741 0.0705294 0 343.744 -0.0677277 0 279.054 -42.5396 0 280.609 45.4155 0 5.3233 -1.10278 0 22.2794 -8.30333 0 293.398 -68.2799 0 297.228 76.4506 0 291.669 -65.536 0 288.209 39.2827 0 294.727 -31.5374 0 285.364 83.6068 0 -1.07484 -1.58006 0 -0.0957065 0.102541 0 303.37 -15.643 0 302.571 15.9881 0 0.000668395 -6.32755e-05 0 0.000110572 0.000355705 0 -0.163458 -0.0384798 0 -0.0461012 0.114324 0 -0.790959 0.714955 0 -0.0092967 0.0123425 0 257.475 79.7955 0 264.306 -58.6987 0 8.85386e-05 4.45545e-05 0 3.99441e-06 0 0 0 0 0 0 0 0 0 0 0 30.5214 -0.666226 0 30.5253 0.668573 0 0.00013479 -0.000133379 0 0.00474207 -0.0028081 0 0.0864646 -0.0347977 0 0.963998 -0.227838 0 6.67768 -0.676353 0 6.68062 0.661772 0 0.988456 0.218533 0 0.0907513 0.0334638 0 0.00507312 0.00272264 0 0.000153663 0.000129064 0 0 0 0 69.4462 0.00302036 0 4.55184e-05 0 0 0.000104329 0 0 0.00296891 -8.26926e-05 0 0.00459583 0.000468821 0 0.100183 0.00752142 0 0.0720529 -0.00185074 0 1.06596 -0.0231785 0 1.3489 0.0605651 0 10.8415 0.0694468 0 8.9985 -0.121145 0 50.3355 -0.00254118 0 39.4302 -0.0769368 0 
        </DataArray>
        <DataArray type="Float32" Name="gradRho" format="ascii">
23.3533 21.4991 46.2833 47.523 27.2527 27.4702 60.8991 65.1841 38.0608 40.3087 43.5152 45.0169 18.6722 16.9215 11.0511 12.4987 21.0561 18.383 61.1771 43.4583 46.5371 59.0479 3.08158 0.987578 15.8173 11.3497 0.0023414 0.0179055 0.127539 0.165364 0.0854298 0.0296339 56.0956 52.509 9.26863e-05 0.000118395 3.33705e-05 2.41688e-06 2.05575e-06 0.80348 0.803667 5.29407e-05 0.00101048 0.0112936 0.0740606 0.274595 0.274594 0.074418 0.0111754 0.000982869 5.14887e-05 1.14636e-06 0.752046 5.38222e-05 7.08482e-05 0.00160187 0.0019857 0.0343858 0.0292124 0.303546 0.341265 1.73971 1.6083 3.8748 3.75492 
        </DataArray>
      </CellData>
    </Piece>
  </UnstructuredGrid>
</VTKFile>
