<?xml version="1.0"?>
<VTKFile type="UnstructuredGrid" version="0.1" byte_order="LittleEndian">
  <UnstructuredGrid>
    <Piece NumberOfPoints="50" NumberOfCells="65">
      <Points>
        <DataArray type="Float32" NumberOfComponents="3" format="ascii">
          0 5 0 0 -5 0 15 0.2 0 15 -0.2 0 35 0.2 0 35 -0.2 0 2.14286 4.31429 0 4.28571 3.62857 0 6.42857 2.94286 0 8.57143 2.25714 0 10.7143 1.57143 0 12.8571 0.885714 0 17.8571 0.2 0 20.7143 0.2 0 23.5714 0.2 0 26.4286 0.2 0 29.2857 0.2 0 32.1429 0.2 0 32.1429 -0.2 0 29.2857 -0.2 0 26.4286 -0.2 0 23.5714 -0.2 0 20.7143 -0.2 0 17.8571 -0.2 0 12.8571 -0.885714 0 10.7143 -1.57143 0 8.57143 -2.25714 0 6.42857 -2.94286 0 4.28571 -3.62857 0 2.14286 -4.31429 0 0 -2.5 0 0 -6.16307e-12 0 0 2.5 0 3.95974 -5.7158e-13 0 13.9286 -3.66374e-15 0 6.61813 2.81487e-12 0 2.86365 2.0434 0 2.86365 -2.0434 0 9.43036 1.987e-12 0 11.3926 2.79508e-14 0 4.83116 1.72297 0 4.83116 -1.72297 0 1.90629 -3.21031e-12 0 33.5714 0 0 16.4286 -1.80625e-18 0 25 6.93889e-18 0 19.2857 -6.93889e-18 0 30.7143 0 0 22.1429 0 0 27.8571 0 0 
        </DataArray>
      </Points>
      <Cells>
        <DataArray type="Int32" Name="connectivity" format="ascii">
          8 9 35 26 27 35 8 35 40 27 41 35 30 42 37 32 36 42 33 40 35 33 35 41 29 30 37 6 36 32 30 31 42 31 32 42 0 6 32 30 29 1 26 35 38 9 38 35 6 7 36 28 29 37 7 40 36 33 41 37 33 36 40 28 37 41 9 10 38 25 26 38 33 42 36 33 37 42 11 34 24 24 25 39 10 11 39 25 38 39 10 39 38 11 24 39 27 28 41 7 8 40 2 34 11 3 24 34 2 3 34 2 44 12 3 23 44 4 17 43 5 43 18 12 46 13 13 48 14 14 45 15 15 49 16 16 47 17 18 47 19 19 49 20 20 45 21 21 48 22 22 46 23 2 3 44 4 43 5 12 44 23 12 23 46 13 46 22 13 22 48 14 21 45 14 48 21 15 45 20 15 20 49 16 19 47 16 49 19 17 18 43 17 47 18 
        </DataArray>
        <DataArray type="Int32" Name="offsets" format="ascii">
          3 6 9 12 15 18 21 24 27 30 33 36 39 42 45 48 51 54 57 60 63 66 69 72 75 78 81 84 87 90 93 96 99 102 105 108 111 114 117 120 123 126 129 132 135 138 141 144 147 150 153 156 159 162 165 168 171 174 177 180 183 186 189 192 195 
        </DataArray>
        <DataArray type="UInt8" Name="types" format="ascii">
          5 5 5 5 5 5 5 5 5 5 5 5 5 5 5 5 5 5 5 5 5 5 5 5 5 5 5 5 5 5 5 5 5 5 5 5 5 5 5 5 5 5 5 5 5 5 5 5 5 5 5 5 5 5 5 5 5 5 5 5 5 5 5 5 5 
        </DataArray>
      </Cells>
      <CellData>
        <DataArray type="Float32" Name="F0_Alpha_SG_co2liq_mod.xml" format="ascii">
1.72677e-10 1.7268e-10 1.7264e-10 1.72666e-10 1.65589e-10 1.65686e-10 1.72151e-10 1.72139e-10 1.65367e-10 1.65065e-10 1.67729e-10 1.67729e-10 1.64162e-10 1.64451e-10 1.72682e-10 1.72682e-10 1.66861e-10 1.65763e-10 1.69972e-10 1.69281e-10 1.69214e-10 1.70239e-10 1.72682e-10 1.72682e-10 1.67367e-10 1.67348e-10 1.72682e-10 1.72682e-10 1.72682e-10 1.72682e-10 1.72682e-10 1.72682e-10 1.7253e-10 1.72367e-10 1.72682e-10 1.72682e-10 1.72682e-10 1.72682e-10 1.72682e-10 1.73169e-10 1.73169e-10 1.72682e-10 1.72682e-10 1.72682e-10 1.72687e-10 1.72763e-10 1.72763e-10 1.72687e-10 1.72682e-10 1.72682e-10 1.72682e-10 1.72682e-10 1.73225e-10 1.72682e-10 1.72682e-10 1.72682e-10 1.72682e-10 1.72682e-10 1.72682e-10 1.72682e-10 1.72685e-10 1.72735e-10 1.72691e-10 1.73077e-10 1.72795e-10 
        </DataArray>
        <DataArray type="Float32" Name="F0_Density_SG_co2liq_mod.xml" format="ascii">
5897.42 5897.28 5899.77 5898.13 6429.65 6423.36 5929.37 5930.08 6431.75 6450.95 6338.35 6338.31 6565.85 6546.93 5897.13 5897.15 6257.17 6324.85 6053.35 6099.33 6103.17 6038.59 5897.13 5897.13 6238.44 6239.28 5897.13 5897.13 5897.13 5897.13 5897.13 5897.13 5906.46 5916.32 5897.13 5897.13 5897.13 5897.13 5897.13 5864.53 5864.54 5897.13 5897.13 5897.12 5896.81 5891.94 5891.96 5896.81 5897.12 5897.13 5897.13 5897.13 5857.03 5897.13 5897.13 5897.13 5897.13 5897.13 5897.13 5897.11 5896.96 5893.73 5896.57 5871.04 5889.83 
        </DataArray>
        <DataArray type="Float32" Name="F0_Temperature_SG_co2liq_mod.xml" format="ascii">
41.7816 41.7811 41.7889 41.7838 42.3923 42.3895 41.8708 41.8726 42.3932 42.4015 42.3467 42.3466 42.4436 42.4375 41.7807 41.7807 42.2957 42.3389 42.097 42.1543 42.1587 42.0763 41.7807 41.7807 42.2823 42.2829 41.7807 41.7807 41.7807 41.7807 41.7807 41.7807 41.809 41.8368 41.7807 41.7807 41.7807 41.7807 41.7807 41.6615 41.6615 41.7807 41.7807 41.7806 41.7797 41.764 41.764 41.7797 41.7806 41.7807 41.7807 41.7807 41.6278 41.7807 41.7807 41.7807 41.7807 41.7807 41.7807 41.7806 41.7801 41.7698 41.7789 41.6884 41.757 
        </DataArray>
        <DataArray type="Float32" Name="F0_Mass fraction_SG_co2liq_mod.xml" format="ascii">
9.58233e-09 9.58816e-09 9.48513e-09 9.55287e-09 2.7257e-09 2.74394e-09 8.47015e-09 8.44897e-09 2.76552e-09 2.7114e-09 2.82492e-09 2.82505e-09 2.27245e-09 2.30991e-09 9.59455e-09 9.59365e-09 3.95267e-09 3.5886e-09 6.05188e-09 5.37772e-09 5.33744e-09 6.24907e-09 9.59441e-09 9.59441e-09 3.96179e-09 3.95957e-09 9.5944e-09 9.5944e-09 9.5944e-09 9.5944e-09 9.59441e-09 9.5944e-09 9.23442e-09 8.88686e-09 9.5944e-09 9.5944e-09 9.5944e-09 9.5944e-09 9.5944e-09 1.13048e-08 1.13046e-08 9.5944e-09 9.59441e-09 9.59477e-09 9.60782e-09 9.81937e-09 9.81888e-09 9.60794e-09 9.59478e-09 9.59441e-09 9.5944e-09 9.5944e-09 1.20525e-08 9.5944e-09 9.5944e-09 9.5944e-09 9.5944e-09 9.59456e-09 9.59441e-09 9.59521e-09 9.60143e-09 9.74029e-09 9.61788e-09 1.08958e-08 9.91638e-09 
        </DataArray>
        <DataArray type="Float32" Name="F1_Alpha_SG_co2gas_mod.xml" format="ascii">
1 1 1 1 1 1 1 1 1 1 1 1 1 1 1 1 1 1 1 1 1 1 1 1 1 1 1 1 1 1 1 1 1 1 1 1 1 1 1 1 1 1 1 1 1 1 1 1 1 1 1 1 1 1 1 1 1 1 1 1 1 1 1 1 1 
        </DataArray>
        <DataArray type="Float32" Name="F1_Density_SG_co2gas_mod.xml" format="ascii">
106.274 106.208 107.383 106.607 390.609 387.86 120.511 120.819 384.592 392.722 376.337 376.319 474.319 466.1 106.136 106.146 264.144 292.156 170.013 191.996 193.49 164.505 106.138 106.138 263.545 263.697 106.138 106.138 106.138 106.138 106.138 106.138 110.352 114.751 106.138 106.138 106.138 106.138 106.138 89.8339 89.8355 106.138 106.138 106.134 105.987 103.663 103.669 105.986 106.133 106.138 106.138 106.138 84.1799 106.138 106.138 106.138 106.138 106.136 106.138 106.129 106.059 104.52 105.874 93.2596 102.632 
        </DataArray>
        <DataArray type="Float32" Name="F1_Temperature_SG_co2gas_mod.xml" format="ascii">
466.421 466.404 466.725 466.517 386.865 386.76 471.343 471.446 393.877 394.296 358.639 358.638 368.589 368.067 466.385 466.388 455.778 453.733 483.868 474.662 474.776 482.47 466.385 466.385 443.908 444.231 466.385 466.385 466.385 466.385 466.385 466.385 468.158 469.728 466.385 466.385 466.385 466.385 466.385 462.002 462.002 466.385 466.385 466.384 466.346 465.732 465.733 466.345 466.384 466.385 466.385 466.385 469.522 466.385 466.385 466.385 466.385 466.385 466.385 466.383 466.364 465.957 466.316 462.89 465.515 
        </DataArray>
        <DataArray type="Float32" Name="F1_Mass fraction_SG_co2gas_mod.xml" format="ascii">
1 1 1 1 1 1 1 1 1 1 1 1 1 1 1 1 1 1 1 1 1 1 1 1 1 1 1 1 1 1 1 1 1 1 1 1 1 1 1 1 1 1 1 1 1 1 1 1 1 1 1 1 1 1 1 1 1 1 1 1 1 1 1 1 1 
        </DataArray>
        <DataArray type="Float32" Name="Density_Mixture" format="ascii">
106.274 106.208 107.383 106.607 390.609 387.86 120.511 120.819 384.592 392.722 376.337 376.319 474.319 466.1 106.136 106.146 264.144 292.156 170.013 191.996 193.49 164.505 106.138 106.138 263.545 263.697 106.138 106.138 106.138 106.138 106.138 106.138 110.352 114.751 106.138 106.138 106.138 106.138 106.138 89.8339 89.8355 106.138 106.138 106.134 105.987 103.663 103.669 105.986 106.133 106.138 106.138 106.138 84.1799 106.138 106.138 106.138 106.138 106.136 106.138 106.129 106.059 104.52 105.874 93.2596 102.632 
        </DataArray>
        <DataArray type="Float32" Name="Pressure_Mixture" format="ascii">
6.28159e+06 6.27688e+06 6.36109e+06 6.30556e+06 2.09649e+07 2.08053e+07 7.32757e+06 7.35038e+06 2.10183e+07 2.15051e+07 1.86305e+07 1.86295e+07 2.43942e+07 2.3921e+07 6.27174e+06 6.27246e+06 1.65225e+07 1.82823e+07 1.10093e+07 1.22919e+07 1.23976e+07 1.05907e+07 6.27185e+06 6.27185e+06 1.60307e+07 1.60528e+07 6.27186e+06 6.27186e+06 6.27186e+06 6.27186e+06 6.27185e+06 6.27186e+06 6.58436e+06 6.90822e+06 6.27186e+06 6.27186e+06 6.27186e+06 6.27186e+06 6.27186e+06 5.11539e+06 5.11551e+06 6.27186e+06 6.27185e+06 6.27156e+06 6.26107e+06 6.09519e+06 6.09556e+06 6.26098e+06 6.27155e+06 6.27185e+06 6.27186e+06 6.27186e+06 4.82921e+06 6.27186e+06 6.27186e+06 6.27186e+06 6.27186e+06 6.27173e+06 6.27185e+06 6.27121e+06 6.2662e+06 6.15628e+06 6.25301e+06 5.35622e+06 6.02249e+06 
        </DataArray>
        <DataArray type="Float32" Name="Velocity_Mixture" NumberOfComponents="3" format="ascii">
0.353664 0.00396389 0 0.137577 0.0214498 0 2.50034 0.268118 0 1.209 -1.90345 0 308.486 3.30309 0 310 -2.77925 0 37.2539 -5.13081 0 38.3656 4.78887 0 301.395 43.8243 0 299.074 -40.7081 0 341.294 0.142869 0 341.292 -0.14404 0 302.428 -43.2698 0 302.622 48.1042 0 -0.00331271 -0.00475357 0 0.0171486 -0.0123883 0 232.713 -36.6942 0 228.781 68.6702 0 134.667 -18.6879 0 168.233 -10.8438 0 166.301 9.67773 0 106.413 29.2352 0 -0.000743236 -0.000518512 0 -0.000200051 1.93758e-05 0 238.867 -22.4718 0 240.307 25.3305 0 0 0 0 0 0 0 -3.13729e-07 0 0 1.9255e-05 3.14039e-05 0 -0.000198418 0.000156606 0 0 0 0 7.56439 0.468229 0 22.5444 1.7008 0 0 0 0 0 0 0 0 0 0 0 0 0 0 0 0 13.6127 -1.11581 0 13.613 1.11828 0 0 0 0 0 -3.42472e-05 0 0.0018516 -0.00190468 0 0.0736623 -0.0476258 0 1.38165 -0.457046 0 1.44607 0.432084 0 0.07918 0.046006 0 0.00205614 0.00187847 0 5.29543e-06 3.63863e-05 0 0 0 0 0 0 0 53.8745 0.0027202 0 0 0 0 0 0 0 0 0 0 0 0 0 0.00125944 0.000197608 0 0.000617647 -1.31078e-05 0 0.0388737 -0.00123315 0 0.0649438 0.00790795 0 1.66228 0.136917 0 1.18798 -0.0316301 0 20.4733 -0.00517142 0 15.8197 -0.33445 0 
        </DataArray>
        <DataArray type="Float32" Name="gradRho" format="ascii">
0.340306 0.126778 3.43424 3.59195 38.5603 39.309 30.5367 30.0784 50.7833 64.5889 9.91341 8.01396 19.2642 19.2432 0.0175988 0.0393174 61.1552 56.6842 47.182 48.8009 48.42 55.7016 0.00289586 0.00054812 64.7834 66.2028 2.88268e-08 3.0778e-06 3.6735e-05 4.28492e-05 6.46931e-05 1.69664e-06 19.3906 20.2241 6.08817e-11 6.08817e-11 0 1.90068e-09 1.7369e-09 0.870349 0.870891 1.91473e-07 1.93071e-05 0.000822504 0.017007 0.143393 0.144269 0.0165901 0.000778324 1.62452e-05 1.60471e-07 1.7152e-10 0.815272 3.43434e-08 6.03259e-08 6.18656e-06 1.06391e-05 0.000805281 0.000573925 0.0249917 0.031494 0.556011 0.484714 3.60941 3.37964 
        </DataArray>
      </CellData>
    </Piece>
  </UnstructuredGrid>
</VTKFile>
