<?xml version="1.0"?>
<VTKFile type="UnstructuredGrid" version="0.1" byte_order="LittleEndian">
  <UnstructuredGrid>
    <Piece NumberOfPoints="50" NumberOfCells="65">
      <Points>
        <DataArray type="Float32" NumberOfComponents="3" format="ascii">
          0 5 0 0 -5 0 15 0.2 0 15 -0.2 0 35 0.2 0 35 -0.2 0 2.14286 4.31429 0 4.28571 3.62857 0 6.42857 2.94286 0 8.57143 2.25714 0 10.7143 1.57143 0 12.8571 0.885714 0 17.8571 0.2 0 20.7143 0.2 0 23.5714 0.2 0 26.4286 0.2 0 29.2857 0.2 0 32.1429 0.2 0 32.1429 -0.2 0 29.2857 -0.2 0 26.4286 -0.2 0 23.5714 -0.2 0 20.7143 -0.2 0 17.8571 -0.2 0 12.8571 -0.885714 0 10.7143 -1.57143 0 8.57143 -2.25714 0 6.42857 -2.94286 0 4.28571 -3.62857 0 2.14286 -4.31429 0 0 -2.5 0 0 -6.16307e-12 0 0 2.5 0 3.95974 -5.7158e-13 0 13.9286 -3.66374e-15 0 6.61813 2.81487e-12 0 2.86365 2.0434 0 2.86365 -2.0434 0 9.43036 1.987e-12 0 11.3926 2.79508e-14 0 4.83116 1.72297 0 4.83116 -1.72297 0 1.90629 -3.21031e-12 0 33.5714 0 0 16.4286 -1.80625e-18 0 25 6.93889e-18 0 19.2857 -6.93889e-18 0 30.7143 0 0 22.1429 0 0 27.8571 0 0 
        </DataArray>
      </Points>
      <Cells>
        <DataArray type="Int32" Name="connectivity" format="ascii">
          8 9 35 26 27 35 8 35 40 27 41 35 30 42 37 32 36 42 33 40 35 33 35 41 29 30 37 6 36 32 30 31 42 31 32 42 0 6 32 30 29 1 26 35 38 9 38 35 6 7 36 28 29 37 7 40 36 33 41 37 33 36 40 28 37 41 9 10 38 25 26 38 33 42 36 33 37 42 11 34 24 24 25 39 10 11 39 25 38 39 10 39 38 11 24 39 27 28 41 7 8 40 2 34 11 3 24 34 2 3 34 2 44 12 3 23 44 4 17 43 5 43 18 12 46 13 13 48 14 14 45 15 15 49 16 16 47 17 18 47 19 19 49 20 20 45 21 21 48 22 22 46 23 2 3 44 4 43 5 12 44 23 12 23 46 13 46 22 13 22 48 14 21 45 14 48 21 15 45 20 15 20 49 16 19 47 16 49 19 17 18 43 17 47 18 
        </DataArray>
        <DataArray type="Int32" Name="offsets" format="ascii">
          3 6 9 12 15 18 21 24 27 30 33 36 39 42 45 48 51 54 57 60 63 66 69 72 75 78 81 84 87 90 93 96 99 102 105 108 111 114 117 120 123 126 129 132 135 138 141 144 147 150 153 156 159 162 165 168 171 174 177 180 183 186 189 192 195 
        </DataArray>
        <DataArray type="UInt8" Name="types" format="ascii">
          5 5 5 5 5 5 5 5 5 5 5 5 5 5 5 5 5 5 5 5 5 5 5 5 5 5 5 5 5 5 5 5 5 5 5 5 5 5 5 5 5 5 5 5 5 5 5 5 5 5 5 5 5 5 5 5 5 5 5 5 5 5 5 5 5 
        </DataArray>
      </Cells>
      <CellData>
        <DataArray type="Float32" Name="F0_Alpha_SG_co2liq_mod.xml" format="ascii">
1.72682e-10 1.72682e-10 1.72682e-10 1.72682e-10 1.70893e-10 1.70896e-10 1.72682e-10 1.72682e-10 1.71329e-10 1.71373e-10 1.69066e-10 1.69065e-10 1.68718e-10 1.68737e-10 1.72682e-10 1.72682e-10 1.72643e-10 1.72643e-10 1.72686e-10 1.72682e-10 1.72682e-10 1.72686e-10 1.72682e-10 1.72682e-10 1.72662e-10 1.7266e-10 1.72682e-10 1.72682e-10 1.72682e-10 1.72682e-10 1.72682e-10 1.72682e-10 1.72682e-10 1.72683e-10 1.72682e-10 1.72682e-10 1.72682e-10 1.72682e-10 1.72682e-10 1.7283e-10 1.7283e-10 1.72682e-10 1.72682e-10 1.72682e-10 1.72682e-10 1.72683e-10 1.72683e-10 1.72682e-10 1.72682e-10 1.72682e-10 1.72682e-10 1.72682e-10 1.7295e-10 1.72682e-10 1.72682e-10 1.72682e-10 1.72682e-10 1.72682e-10 1.72682e-10 1.72682e-10 1.72682e-10 1.72682e-10 1.72682e-10 1.72746e-10 1.72687e-10 
        </DataArray>
        <DataArray type="Float32" Name="F0_Density_SG_co2liq_mod.xml" format="ascii">
5897.13 5897.13 5897.13 5897.13 6015.89 6015.73 5897.13 5897.13 5987.27 5984.43 6189.76 6189.84 6204.62 6203.14 5897.13 5897.13 5899.51 5899.54 5896.84 5897.1 5897.1 5896.9 5897.13 5897.13 5898.28 5898.36 5897.13 5897.13 5897.13 5897.13 5897.13 5897.13 5897.12 5897.09 5897.13 5897.13 5897.13 5897.13 5897.13 5887.6 5887.6 5897.13 5897.13 5897.13 5897.13 5897.05 5897.04 5897.13 5897.13 5897.13 5897.13 5897.13 5878.04 5897.13 5897.13 5897.13 5897.13 5897.13 5897.13 5897.13 5897.13 5897.11 5897.13 5893.01 5896.83 
        </DataArray>
        <DataArray type="Float32" Name="F0_Temperature_SG_co2liq_mod.xml" format="ascii">
41.7807 41.7807 41.7807 41.7807 42.042 42.0418 41.7807 41.7807 41.9935 41.9883 42.2436 42.2437 42.256 42.2548 41.7807 41.7807 41.7881 41.7882 41.7798 41.7806 41.7806 41.78 41.7807 41.7807 41.7843 41.7845 41.7807 41.7807 41.7807 41.7807 41.7807 41.7807 41.7806 41.7806 41.7807 41.7807 41.7807 41.7807 41.7807 41.7495 41.7495 41.7807 41.7807 41.7807 41.7807 41.7804 41.7804 41.7807 41.7807 41.7807 41.7807 41.7807 41.7154 41.7807 41.7807 41.7807 41.7807 41.7807 41.7807 41.7807 41.7807 41.7806 41.7807 41.7675 41.7797 
        </DataArray>
        <DataArray type="Float32" Name="F0_Mass fraction_SG_co2liq_mod.xml" format="ascii">
9.5944e-09 9.5944e-09 9.59445e-09 9.59439e-09 6.25835e-09 6.26076e-09 9.59448e-09 9.59446e-09 6.81388e-09 6.87347e-09 3.80655e-09 3.80611e-09 3.77131e-09 3.78191e-09 9.5944e-09 9.5944e-09 9.49942e-09 9.49837e-09 9.60651e-09 9.59554e-09 9.59573e-09 9.60402e-09 9.5944e-09 9.5944e-09 9.55304e-09 9.54982e-09 9.5944e-09 9.5944e-09 9.5944e-09 9.5944e-09 9.5944e-09 9.5944e-09 9.5949e-09 9.59603e-09 9.5944e-09 9.5944e-09 9.5944e-09 9.5944e-09 9.5944e-09 1.00194e-08 1.00194e-08 9.5944e-09 9.5944e-09 9.5944e-09 9.59441e-09 9.59795e-09 9.59836e-09 9.59441e-09 9.5944e-09 9.5944e-09 9.5944e-09 9.5944e-09 1.05892e-08 9.5944e-09 9.5944e-09 9.5944e-09 9.5944e-09 9.5944e-09 9.5944e-09 9.5944e-09 9.5944e-09 9.59517e-09 9.59443e-09 9.77203e-09 9.60698e-09 
        </DataArray>
        <DataArray type="Float32" Name="F1_Alpha_SG_co2gas_mod.xml" format="ascii">
1 1 1 1 1 1 1 1 1 1 1 1 1 1 1 1 1 1 1 1 1 1 1 1 1 1 1 1 1 1 1 1 1 1 1 1 1 1 1 1 1 1 1 1 1 1 1 1 1 1 1 1 1 1 1 1 1 1 1 1 1 1 1 1 1 
        </DataArray>
        <DataArray type="Float32" Name="F1_Density_SG_co2gas_mod.xml" format="ascii">
106.138 106.138 106.137 106.138 164.272 164.207 106.137 106.137 150.545 149.207 274.915 274.948 277.578 276.765 106.138 106.138 107.218 107.23 106.002 106.125 106.123 106.03 106.138 106.138 106.606 106.642 106.138 106.138 106.138 106.138 106.138 106.138 106.132 106.119 106.138 106.138 106.138 106.138 106.138 101.559 101.559 106.138 106.138 106.138 106.138 106.098 106.093 106.138 106.138 106.138 106.138 106.138 96.0037 106.138 106.138 106.138 106.138 106.138 106.138 106.138 106.138 106.129 106.137 104.174 105.996 
        </DataArray>
        <DataArray type="Float32" Name="F1_Temperature_SG_co2gas_mod.xml" format="ascii">
466.385 466.385 466.385 466.385 455.703 455.693 466.385 466.385 458.753 458.961 393.118 393.122 399.194 399.386 466.385 466.385 466.872 466.89 466.35 466.382 466.381 466.357 466.385 466.385 466.866 466.886 466.385 466.385 466.385 466.385 466.385 466.385 466.384 466.381 466.385 466.385 466.385 466.385 466.385 465.19 465.19 466.385 466.385 466.385 466.385 466.375 466.374 466.385 466.385 466.385 466.385 466.385 467.868 466.385 466.385 466.385 466.385 466.385 466.385 466.385 466.385 466.383 466.385 465.868 466.348 
        </DataArray>
        <DataArray type="Float32" Name="F1_Mass fraction_SG_co2gas_mod.xml" format="ascii">
1 1 1 1 1 1 1 1 1 1 1 1 1 1 1 1 1 1 1 1 1 1 1 1 1 1 1 1 1 1 1 1 1 1 1 1 1 1 1 1 1 1 1 1 1 1 1 1 1 1 1 1 1 1 1 1 1 1 1 1 1 1 1 1 1 
        </DataArray>
        <DataArray type="Float32" Name="Density_Mixture" format="ascii">
106.138 106.138 106.137 106.138 164.272 164.207 106.137 106.137 150.545 149.207 274.915 274.948 277.578 276.765 106.138 106.138 107.218 107.23 106.002 106.125 106.123 106.03 106.138 106.138 106.606 106.642 106.138 106.138 106.138 106.138 106.138 106.138 106.132 106.119 106.138 106.138 106.138 106.138 106.138 101.559 101.559 106.138 106.138 106.138 106.138 106.098 106.093 106.138 106.138 106.138 106.138 106.138 96.0037 106.138 106.138 106.138 106.138 106.138 106.138 106.138 106.138 106.129 106.137 104.174 105.996 
        </DataArray>
        <DataArray type="Float32" Name="Pressure_Mixture" format="ascii">
6.27186e+06 6.27186e+06 6.27182e+06 6.27187e+06 9.93866e+06 9.93414e+06 6.27179e+06 6.27181e+06 9.10047e+06 9.01624e+06 1.47415e+07 1.47436e+07 1.51368e+07 1.50975e+07 6.27186e+06 6.27186e+06 6.35226e+06 6.35335e+06 6.26213e+06 6.27094e+06 6.27079e+06 6.26413e+06 6.27186e+06 6.27186e+06 6.31082e+06 6.31359e+06 6.27186e+06 6.27186e+06 6.27186e+06 6.27186e+06 6.27186e+06 6.27186e+06 6.27145e+06 6.27055e+06 6.27186e+06 6.27186e+06 6.27186e+06 6.27186e+06 6.27186e+06 5.94549e+06 5.94549e+06 6.27186e+06 6.27186e+06 6.27186e+06 6.27185e+06 6.269e+06 6.26867e+06 6.27185e+06 6.27186e+06 6.27186e+06 6.27186e+06 6.27186e+06 5.609e+06 6.27186e+06 6.27186e+06 6.27186e+06 6.27186e+06 6.27186e+06 6.27186e+06 6.27186e+06 6.27186e+06 6.27124e+06 6.27183e+06 6.13166e+06 6.26175e+06 
        </DataArray>
        <DataArray type="Float32" Name="Velocity_Mixture" NumberOfComponents="3" format="ascii">
0 0 0 2.95004e-06 0 0 -0.000843647 0.00102405 0 0.000158804 0.000241857 0 128.352 -19.4461 0 128.49 19.909 0 -0.00193327 0.000986524 0 -0.00158921 -0.000763298 0 103.291 32.04 0 102.735 -27.7931 0 286.593 1.47943 0 286.563 -1.50157 0 269.617 -19.8319 0 263.372 38.7165 0 0 0 0 0 0 0 1.87155 -0.429766 0 2.34137 0.152868 0 -0.250828 0.225669 0 -0.0224528 -0.00466196 0 -0.0248588 0.0286452 0 -0.213937 -0.181172 0 0 0 0 0 0 0 1.65337 -0.532122 0 1.7493 0.597261 0 0 0 0 0 0 0 0 0 0 0 0 0 0 0 0 0 0 0 -0.0109146 0.00156706 0 -0.044658 -0.0103004 0 0 0 0 0 0 0 0 0 0 0 0 0 0 0 0 2.32593 -1.50866 0 2.32593 1.50866 0 0 0 0 0 0 0 0 0 0 1.56408e-05 -7.76129e-05 0 0.0147661 -0.0338459 0 0.0181147 0.0355052 0 2.34868e-05 9.25272e-05 0 0 0 0 0 0 0 0 0 0 0 0 0 21.3028 0 0 0 0 0 0 0 0 0 0 0 0 0 0 0 0 0 0 0 0 0 0 0 0 0 0 0.00519309 0.00131178 0 0.00123361 -4.67958e-05 0 1.29119 0 0 0.532006 -0.0226174 0 
        </DataArray>
        <DataArray type="Float32" Name="gradRho" format="ascii">
0.000149002 3.18587e-05 0.00543478 0.00162889 51.0156 51.1539 0.00549017 0.00481383 43.5276 43.4423 76.846 76.9082 30.3071 29.7993 8.73118e-07 3.84221e-07 14.1117 14.5471 0.312833 0.187379 0.180908 0.319187 3.45517e-09 7.76283e-09 19.9302 19.9566 0 0 0 0 0 0 0.0365508 0.0433922 0 0 0 0 0 0.958896 0.958896 0 0 4.67264e-08 6.92542e-05 0.0204742 0.0184183 6.17633e-05 4.19303e-08 0 0 0 0.800871 0 0 0 0 6.13916e-09 1.3095e-09 2.6947e-06 1.20566e-05 0.00656133 0.00291976 0.889061 0.647187 
        </DataArray>
      </CellData>
    </Piece>
  </UnstructuredGrid>
</VTKFile>
