<?xml version="1.0"?>
<VTKFile type="UnstructuredGrid" version="0.1" byte_order="LittleEndian">
  <UnstructuredGrid>
    <Piece NumberOfPoints="50" NumberOfCells="65">
      <Points>
        <DataArray type="Float32" NumberOfComponents="3" format="ascii">
          0 5 0 0 -5 0 15 0.2 0 15 -0.2 0 35 0.2 0 35 -0.2 0 2.14286 4.31429 0 4.28571 3.62857 0 6.42857 2.94286 0 8.57143 2.25714 0 10.7143 1.57143 0 12.8571 0.885714 0 17.8571 0.2 0 20.7143 0.2 0 23.5714 0.2 0 26.4286 0.2 0 29.2857 0.2 0 32.1429 0.2 0 32.1429 -0.2 0 29.2857 -0.2 0 26.4286 -0.2 0 23.5714 -0.2 0 20.7143 -0.2 0 17.8571 -0.2 0 12.8571 -0.885714 0 10.7143 -1.57143 0 8.57143 -2.25714 0 6.42857 -2.94286 0 4.28571 -3.62857 0 2.14286 -4.31429 0 0 -2.5 0 0 -6.16307e-12 0 0 2.5 0 3.95974 -5.7158e-13 0 13.9286 -3.66374e-15 0 6.61813 2.81487e-12 0 2.86365 2.0434 0 2.86365 -2.0434 0 9.43036 1.987e-12 0 11.3926 2.79508e-14 0 4.83116 1.72297 0 4.83116 -1.72297 0 1.90629 -3.21031e-12 0 33.5714 0 0 16.4286 -1.80625e-18 0 25 6.93889e-18 0 19.2857 -6.93889e-18 0 30.7143 0 0 22.1429 0 0 27.8571 0 0 
        </DataArray>
      </Points>
      <Cells>
        <DataArray type="Int32" Name="connectivity" format="ascii">
          8 9 35 26 27 35 8 35 40 27 41 35 30 42 37 32 36 42 33 40 35 33 35 41 29 30 37 6 36 32 30 31 42 31 32 42 0 6 32 30 29 1 26 35 38 9 38 35 6 7 36 28 29 37 7 40 36 33 41 37 33 36 40 28 37 41 9 10 38 25 26 38 33 42 36 33 37 42 11 34 24 24 25 39 10 11 39 25 38 39 10 39 38 11 24 39 27 28 41 7 8 40 2 34 11 3 24 34 2 3 34 2 44 12 3 23 44 4 17 43 5 43 18 12 46 13 13 48 14 14 45 15 15 49 16 16 47 17 18 47 19 19 49 20 20 45 21 21 48 22 22 46 23 2 3 44 4 43 5 12 44 23 12 23 46 13 46 22 13 22 48 14 21 45 14 48 21 15 45 20 15 20 49 16 19 47 16 49 19 17 18 43 17 47 18 
        </DataArray>
        <DataArray type="Int32" Name="offsets" format="ascii">
          3 6 9 12 15 18 21 24 27 30 33 36 39 42 45 48 51 54 57 60 63 66 69 72 75 78 81 84 87 90 93 96 99 102 105 108 111 114 117 120 123 126 129 132 135 138 141 144 147 150 153 156 159 162 165 168 171 174 177 180 183 186 189 192 195 
        </DataArray>
        <DataArray type="UInt8" Name="types" format="ascii">
          5 5 5 5 5 5 5 5 5 5 5 5 5 5 5 5 5 5 5 5 5 5 5 5 5 5 5 5 5 5 5 5 5 5 5 5 5 5 5 5 5 5 5 5 5 5 5 5 5 5 5 5 5 5 5 5 5 5 5 5 5 5 5 5 5 
        </DataArray>
      </Cells>
      <CellData>
        <DataArray type="Float32" Name="F0_Alpha_SG_co2liq_mod.xml" format="ascii">
1.72682e-10 1.72682e-10 1.72682e-10 1.72682e-10 1.71538e-10 1.71539e-10 1.72682e-10 1.72682e-10 1.71832e-10 1.71862e-10 1.6955e-10 1.69549e-10 1.69413e-10 1.69417e-10 1.72682e-10 1.72682e-10 1.72678e-10 1.72686e-10 1.72687e-10 1.72683e-10 1.72683e-10 1.72683e-10 1.72682e-10 1.72682e-10 1.72701e-10 1.72701e-10 1.72682e-10 1.72682e-10 1.72682e-10 1.72682e-10 1.72682e-10 1.72682e-10 1.72682e-10 1.72682e-10 1.72682e-10 1.72682e-10 1.72682e-10 1.72682e-10 1.72682e-10 1.72793e-10 1.72793e-10 1.72682e-10 1.72682e-10 1.72682e-10 1.72682e-10 1.72682e-10 1.72683e-10 1.72682e-10 1.72682e-10 1.72682e-10 1.72682e-10 1.72682e-10 1.72917e-10 1.72682e-10 1.72682e-10 1.72682e-10 1.72682e-10 1.72682e-10 1.72682e-10 1.72682e-10 1.72682e-10 1.72682e-10 1.72682e-10 1.72719e-10 1.72684e-10 
        </DataArray>
        <DataArray type="Float32" Name="F0_Density_SG_co2liq_mod.xml" format="ascii">
5897.13 5897.13 5897.13 5897.13 5973.01 5972.95 5897.13 5897.13 5953.65 5951.8 6147.97 6148.01 6150.66 6150.15 5897.13 5897.13 5897.4 5896.84 5896.8 5897.09 5897.08 5897.04 5897.13 5897.13 5895.92 5895.93 5897.13 5897.13 5897.13 5897.13 5897.13 5897.13 5897.13 5897.12 5897.13 5897.13 5897.13 5897.13 5897.13 5890.02 5890.02 5897.13 5897.13 5897.13 5897.13 5897.1 5897.1 5897.13 5897.13 5897.13 5897.13 5897.13 5880.52 5897.13 5897.13 5897.13 5897.13 5897.13 5897.13 5897.13 5897.13 5897.13 5897.13 5894.76 5897 
        </DataArray>
        <DataArray type="Float32" Name="F0_Temperature_SG_co2liq_mod.xml" format="ascii">
41.7807 41.7807 41.7807 41.7807 41.9668 41.9666 41.7807 41.7807 41.9271 41.9231 42.2056 42.2057 42.2082 42.2077 41.7807 41.7807 41.7815 41.7798 41.7796 41.7805 41.7805 41.7804 41.7807 41.7807 41.7768 41.7769 41.7807 41.7807 41.7807 41.7807 41.7807 41.7807 41.7807 41.7806 41.7807 41.7807 41.7807 41.7807 41.7807 41.7576 41.7576 41.7807 41.7807 41.7807 41.7807 41.7806 41.7806 41.7807 41.7807 41.7807 41.7807 41.7807 41.7246 41.7807 41.7807 41.7807 41.7807 41.7807 41.7807 41.7807 41.7807 41.7807 41.7807 41.7731 41.7803 
        </DataArray>
        <DataArray type="Float32" Name="F0_Mass fraction_SG_co2liq_mod.xml" format="ascii">
9.5944e-09 9.5944e-09 9.59441e-09 9.5944e-09 7.14593e-09 7.14722e-09 9.59441e-09 9.5944e-09 7.6332e-09 7.6816e-09 4.16946e-09 4.16921e-09 4.20276e-09 4.20882e-09 9.5944e-09 9.5944e-09 9.58394e-09 9.60713e-09 9.60818e-09 9.59623e-09 9.59635e-09 9.59823e-09 9.5944e-09 9.5944e-09 9.64643e-09 9.64568e-09 9.5944e-09 9.5944e-09 9.5944e-09 9.5944e-09 9.5944e-09 9.5944e-09 9.59439e-09 9.59496e-09 9.5944e-09 9.5944e-09 9.5944e-09 9.5944e-09 9.5944e-09 9.90682e-09 9.90682e-09 9.5944e-09 9.5944e-09 9.5944e-09 9.5944e-09 9.59563e-09 9.59585e-09 9.5944e-09 9.5944e-09 9.5944e-09 9.5944e-09 9.5944e-09 1.04407e-08 9.5944e-09 9.5944e-09 9.5944e-09 9.5944e-09 9.5944e-09 9.5944e-09 9.5944e-09 9.5944e-09 9.59459e-09 9.59441e-09 9.69564e-09 9.60005e-09 
        </DataArray>
        <DataArray type="Float32" Name="F1_Alpha_SG_co2gas_mod.xml" format="ascii">
1 1 1 1 1 1 1 1 1 1 1 1 1 1 1 1 1 1 1 1 1 1 1 1 1 1 1 1 1 1 1 1 1 1 1 1 1 1 1 1 1 1 1 1 1 1 1 1 1 1 1 1 1 1 1 1 1 1 1 1 1 1 1 1 1 
        </DataArray>
        <DataArray type="Float32" Name="F1_Density_SG_co2gas_mod.xml" format="ascii">
106.138 106.138 106.138 106.138 143.382 143.355 106.138 106.138 134.024 133.16 250.006 250.021 247.933 247.562 106.138 106.138 106.256 105.995 105.983 106.117 106.116 106.095 106.138 106.138 105.555 105.563 106.138 106.138 106.138 106.138 106.138 106.138 106.138 106.131 106.138 106.138 106.138 106.138 106.138 102.732 102.732 106.138 106.138 106.138 106.138 106.124 106.121 106.138 106.138 106.138 106.138 106.138 97.3921 106.138 106.138 106.138 106.138 106.138 106.138 106.138 106.138 106.136 106.138 105.01 106.074 
        </DataArray>
        <DataArray type="Float32" Name="F1_Temperature_SG_co2gas_mod.xml" format="ascii">
466.385 466.385 466.385 466.385 461.139 461.136 466.385 466.385 462.968 463.012 401.252 401.254 406.635 406.857 466.385 466.385 466.455 466.378 466.345 466.38 466.38 466.374 466.385 466.385 466.262 466.266 466.385 466.385 466.385 466.385 466.385 466.385 466.385 466.384 466.385 466.385 466.385 466.385 466.385 465.497 465.497 466.385 466.385 466.385 466.385 466.382 466.381 466.385 466.385 466.385 466.385 466.385 467.462 466.385 466.385 466.385 466.385 466.385 466.385 466.385 466.385 466.385 466.385 466.089 466.369 
        </DataArray>
        <DataArray type="Float32" Name="F1_Mass fraction_SG_co2gas_mod.xml" format="ascii">
1 1 1 1 1 1 1 1 1 1 1 1 1 1 1 1 1 1 1 1 1 1 1 1 1 1 1 1 1 1 1 1 1 1 1 1 1 1 1 1 1 1 1 1 1 1 1 1 1 1 1 1 1 1 1 1 1 1 1 1 1 1 1 1 1 
        </DataArray>
        <DataArray type="Float32" Name="Density_Mixture" format="ascii">
106.138 106.138 106.138 106.138 143.382 143.355 106.138 106.138 134.024 133.16 250.006 250.021 247.933 247.562 106.138 106.138 106.256 105.995 105.983 106.117 106.116 106.095 106.138 106.138 105.555 105.563 106.138 106.138 106.138 106.138 106.138 106.138 106.138 106.131 106.138 106.138 106.138 106.138 106.138 102.732 102.732 106.138 106.138 106.138 106.138 106.124 106.121 106.138 106.138 106.138 106.138 106.138 97.3921 106.138 106.138 106.138 106.138 106.138 106.138 106.138 106.138 106.136 106.138 105.01 106.074 
        </DataArray>
        <DataArray type="Float32" Name="Pressure_Mixture" format="ascii">
6.27186e+06 6.27186e+06 6.27185e+06 6.27186e+06 8.67479e+06 8.67297e+06 6.27185e+06 6.27186e+06 8.08624e+06 8.02931e+06 1.36196e+07 1.36206e+07 1.36923e+07 1.36784e+07 6.27186e+06 6.27186e+06 6.28089e+06 6.26208e+06 6.26079e+06 6.27038e+06 6.27029e+06 6.26878e+06 6.27186e+06 6.27186e+06 6.23068e+06 6.2313e+06 6.27186e+06 6.27186e+06 6.27186e+06 6.27186e+06 6.27186e+06 6.27186e+06 6.27186e+06 6.27141e+06 6.27186e+06 6.27186e+06 6.27186e+06 6.27186e+06 6.27186e+06 6.02902e+06 6.02902e+06 6.27186e+06 6.27186e+06 6.27186e+06 6.27186e+06 6.27087e+06 6.27069e+06 6.27186e+06 6.27186e+06 6.27186e+06 6.27186e+06 6.27186e+06 5.69722e+06 6.27186e+06 6.27186e+06 6.27186e+06 6.27186e+06 6.27186e+06 6.27186e+06 6.27186e+06 6.27186e+06 6.27171e+06 6.27185e+06 6.19128e+06 6.26731e+06 
        </DataArray>
        <DataArray type="Float32" Name="Velocity_Mixture" NumberOfComponents="3" format="ascii">
0 0 0 0 0 0 -0.000134244 0.000173751 0 1.07004e-05 1.77294e-05 0 90.8692 -17.558 0 90.9254 17.7783 0 -0.000235156 0.000117402 0 -1.80813e-05 -6.88147e-06 0 69.3147 24.4858 0 69.0003 -21.8406 0 266.171 1.67922 0 266.154 -1.69203 0 250.857 -14.3254 0 245.426 30.8002 0 0 0 0 0 0 0 -0.811305 -0.836561 0 -0.262168 0.0476136 0 -0.290197 0.245462 0 -0.0432298 0.0154796 0 -0.0410743 0.00425496 0 -0.0877515 -0.0685317 0 0 0 0 0 0 0 -1.278 0.508402 0 -1.25786 -0.497959 0 0 0 0 0 0 0 0 0 0 0 0 0 0 0 0 0 0 0 0.000132483 6.70722e-06 0 -0.0152691 -0.00393098 0 0 0 0 0 0 0 0 0 0 0 0 0 0 0 0 1.59286 -1.51501 0 1.59286 1.51501 0 0 0 0 0 0 0 0 0 0 0 -1.06584e-05 0 0.00488582 -0.0145246 0 0.00630483 0.0162697 0 0 1.56935e-05 0 0 0 0 0 0 0 0 0 0 0 0 0 16.995 0 0 0 0 0 0 0 0 0 0 0 0 0 0 0 0 0 0 0 0 0 0 0 0 0 0 0.00129823 0.00041645 0 0.00022192 -3.51407e-06 0 0.693581 0 0 0.2236 -0.00971686 0 
        </DataArray>
        <DataArray type="Float32" Name="gradRho" format="ascii">
2.44909e-05 3.21939e-06 0.00189687 2.0014e-05 43.6309 43.725 0.00841109 0.00795232 36.1526 35.9751 74.0532 74.0797 27.0966 26.8051 1.65419e-08 2.61763e-08 8.9484 9.25151 0.00497819 0.191724 0.188841 0.0508247 2.21532e-10 9.72518e-11 12.8165 12.8263 0 0 0 0 0 0 0.015099 0.0527464 0 0 0 0 0 0.960939 0.960939 0 0 5.71173e-09 1.53636e-05 0.0107737 0.00960695 1.36817e-05 5.15067e-09 0 0 0 0.769936 0 0 0 0 6.31363e-10 0 3.40058e-07 2.1721e-06 0.00235271 0.000726213 0.591412 0.377193 
        </DataArray>
      </CellData>
    </Piece>
  </UnstructuredGrid>
</VTKFile>
