<?xml version="1.0"?>
<VTKFile type="UnstructuredGrid" version="0.1" byte_order="LittleEndian">
  <UnstructuredGrid>
    <Piece NumberOfPoints="50" NumberOfCells="65">
      <Points>
        <DataArray type="Float32" NumberOfComponents="3" format="ascii">
          0 5 0 0 -5 0 15 0.2 0 15 -0.2 0 35 0.2 0 35 -0.2 0 2.14286 4.31429 0 4.28571 3.62857 0 6.42857 2.94286 0 8.57143 2.25714 0 10.7143 1.57143 0 12.8571 0.885714 0 17.8571 0.2 0 20.7143 0.2 0 23.5714 0.2 0 26.4286 0.2 0 29.2857 0.2 0 32.1429 0.2 0 32.1429 -0.2 0 29.2857 -0.2 0 26.4286 -0.2 0 23.5714 -0.2 0 20.7143 -0.2 0 17.8571 -0.2 0 12.8571 -0.885714 0 10.7143 -1.57143 0 8.57143 -2.25714 0 6.42857 -2.94286 0 4.28571 -3.62857 0 2.14286 -4.31429 0 0 -2.5 0 0 -6.16307e-12 0 0 2.5 0 3.95974 -5.7158e-13 0 13.9286 -3.66374e-15 0 6.61813 2.81487e-12 0 2.86365 2.0434 0 2.86365 -2.0434 0 9.43036 1.987e-12 0 11.3926 2.79508e-14 0 4.83116 1.72297 0 4.83116 -1.72297 0 1.90629 -3.21031e-12 0 33.5714 0 0 16.4286 -1.80625e-18 0 25 6.93889e-18 0 19.2857 -6.93889e-18 0 30.7143 0 0 22.1429 0 0 27.8571 0 0 
        </DataArray>
      </Points>
      <Cells>
        <DataArray type="Int32" Name="connectivity" format="ascii">
          8 9 35 26 27 35 8 35 40 27 41 35 30 42 37 32 36 42 33 40 35 33 35 41 29 30 37 6 36 32 30 31 42 31 32 42 0 6 32 30 29 1 26 35 38 9 38 35 6 7 36 28 29 37 7 40 36 33 41 37 33 36 40 28 37 41 9 10 38 25 26 38 33 42 36 33 37 42 11 34 24 24 25 39 10 11 39 25 38 39 10 39 38 11 24 39 27 28 41 7 8 40 2 34 11 3 24 34 2 3 34 2 44 12 3 23 44 4 17 43 5 43 18 12 46 13 13 48 14 14 45 15 15 49 16 16 47 17 18 47 19 19 49 20 20 45 21 21 48 22 22 46 23 2 3 44 4 43 5 12 44 23 12 23 46 13 46 22 13 22 48 14 21 45 14 48 21 15 45 20 15 20 49 16 19 47 16 49 19 17 18 43 17 47 18 
        </DataArray>
        <DataArray type="Int32" Name="offsets" format="ascii">
          3 6 9 12 15 18 21 24 27 30 33 36 39 42 45 48 51 54 57 60 63 66 69 72 75 78 81 84 87 90 93 96 99 102 105 108 111 114 117 120 123 126 129 132 135 138 141 144 147 150 153 156 159 162 165 168 171 174 177 180 183 186 189 192 195 
        </DataArray>
        <DataArray type="UInt8" Name="types" format="ascii">
          5 5 5 5 5 5 5 5 5 5 5 5 5 5 5 5 5 5 5 5 5 5 5 5 5 5 5 5 5 5 5 5 5 5 5 5 5 5 5 5 5 5 5 5 5 5 5 5 5 5 5 5 5 5 5 5 5 5 5 5 5 5 5 5 5 
        </DataArray>
      </Cells>
      <CellData>
        <DataArray type="Float32" Name="F0_Alpha_SG_co2liq_mod.xml" format="ascii">
1.72682e-10 1.72682e-10 1.72682e-10 1.72682e-10 1.69103e-10 1.69117e-10 1.72682e-10 1.72682e-10 1.69858e-10 1.69882e-10 1.68326e-10 1.68325e-10 1.67346e-10 1.67429e-10 1.72682e-10 1.72682e-10 1.72365e-10 1.72224e-10 1.72661e-10 1.72638e-10 1.72637e-10 1.72714e-10 1.72682e-10 1.72682e-10 1.72314e-10 1.72307e-10 1.72682e-10 1.72682e-10 1.72682e-10 1.72682e-10 1.72682e-10 1.72682e-10 1.72686e-10 1.72683e-10 1.72682e-10 1.72682e-10 1.72682e-10 1.72682e-10 1.72682e-10 1.72915e-10 1.72915e-10 1.72682e-10 1.72682e-10 1.72682e-10 1.72682e-10 1.72689e-10 1.72689e-10 1.72682e-10 1.72682e-10 1.72682e-10 1.72682e-10 1.72682e-10 1.73018e-10 1.72682e-10 1.72682e-10 1.72682e-10 1.72682e-10 1.72682e-10 1.72682e-10 1.72682e-10 1.72682e-10 1.72684e-10 1.72682e-10 1.72822e-10 1.72698e-10 
        </DataArray>
        <DataArray type="Float32" Name="F0_Density_SG_co2liq_mod.xml" format="ascii">
5897.13 5897.13 5897.12 5897.13 6137.38 6136.57 5897.12 5897.13 6087.16 6084.93 6259.12 6259.18 6312.81 6307.29 5897.13 5897.13 5916.55 5925.18 5898.45 5899.9 5899.96 5895.11 5897.13 5897.13 5919.26 5919.67 5897.13 5897.13 5897.13 5897.13 5897.13 5897.13 5896.86 5897.1 5897.13 5897.13 5897.13 5897.13 5897.13 5881.97 5881.97 5897.13 5897.13 5897.13 5897.13 5896.7 5896.69 5897.13 5897.13 5897.13 5897.13 5897.13 5872.78 5897.13 5897.13 5897.13 5897.13 5897.13 5897.13 5897.13 5897.13 5896.98 5897.12 5888.1 5896.12 
        </DataArray>
        <DataArray type="Float32" Name="F0_Temperature_SG_co2liq_mod.xml" format="ascii">
41.7807 41.7807 41.7806 41.7807 42.1952 42.1943 41.7807 41.7807 42.1401 42.1374 42.2971 42.2971 42.3318 42.3285 41.7807 41.7807 41.8374 41.8602 41.7848 41.7893 41.7895 41.7743 41.7807 41.7807 41.8447 41.8458 41.7807 41.7807 41.7807 41.7807 41.7807 41.7807 41.7798 41.7806 41.7807 41.7807 41.7807 41.7807 41.7807 41.7298 41.7298 41.7807 41.7807 41.7807 41.7807 41.7793 41.7793 41.7807 41.7807 41.7807 41.7807 41.7807 41.6954 41.7807 41.7807 41.7807 41.7807 41.7807 41.7807 41.7807 41.7807 41.7802 41.7806 41.7512 41.7775 
        </DataArray>
        <DataArray type="Float32" Name="F0_Mass fraction_SG_co2liq_mod.xml" format="ascii">
9.59441e-09 9.59438e-09 9.59492e-09 9.59421e-09 4.63685e-09 4.64293e-09 9.59462e-09 9.59454e-09 5.17258e-09 5.20808e-09 3.31051e-09 3.31025e-09 3.1333e-09 3.15594e-09 9.5944e-09 9.5944e-09 8.87537e-09 8.58952e-09 9.53957e-09 9.48024e-09 9.47808e-09 9.68055e-09 9.5944e-09 9.5944e-09 8.80014e-09 8.78655e-09 9.5944e-09 9.5944e-09 9.5944e-09 9.5944e-09 9.5944e-09 9.5944e-09 9.6058e-09 9.59584e-09 9.5944e-09 9.5944e-09 9.5944e-09 9.5944e-09 9.5944e-09 1.02958e-08 1.02958e-08 9.5944e-09 9.5944e-09 9.5944e-09 9.59452e-09 9.6124e-09 9.61306e-09 9.59453e-09 9.5944e-09 9.5944e-09 9.5944e-09 9.5944e-09 1.09206e-08 9.5944e-09 9.5944e-09 9.5944e-09 9.5944e-09 9.5944e-09 9.5944e-09 9.5944e-09 9.59443e-09 9.60083e-09 9.59483e-09 9.99569e-09 9.63718e-09 
        </DataArray>
        <DataArray type="Float32" Name="F1_Alpha_SG_co2gas_mod.xml" format="ascii">
1 1 1 1 1 1 1 1 1 1 1 1 1 1 1 1 1 1 1 1 1 1 1 1 1 1 1 1 1 1 1 1 1 1 1 1 1 1 1 1 1 1 1 1 1 1 1 1 1 1 1 1 1 1 1 1 1 1 1 1 1 1 1 1 1 
        </DataArray>
        <DataArray type="Float32" Name="F1_Density_SG_co2gas_mod.xml" format="ascii">
106.138 106.138 106.132 106.14 223.826 223.523 106.135 106.136 199.891 198.484 318.25 318.276 337.16 334.614 106.138 106.138 114.903 118.803 106.759 107.439 107.464 105.176 106.138 106.138 115.904 116.087 106.138 106.138 106.138 106.138 106.138 106.138 106.009 106.122 106.138 106.138 106.138 106.138 106.138 98.7857 98.7858 106.138 106.138 106.138 106.136 105.935 105.928 106.136 106.138 106.138 106.138 106.138 93.0439 106.138 106.138 106.138 106.138 106.138 106.138 106.138 106.137 106.065 106.133 101.803 105.658 
        </DataArray>
        <DataArray type="Float32" Name="F1_Temperature_SG_co2gas_mod.xml" format="ascii">
466.385 466.385 466.384 466.386 439.316 439.238 466.385 466.385 444.268 445.267 379.396 379.399 386.785 386.773 466.385 466.385 469.549 470.353 466.557 466.763 466.768 466.138 466.385 466.385 470.732 470.798 466.385 466.385 466.385 466.385 466.385 466.385 466.352 466.381 466.385 466.385 466.385 466.385 466.385 464.457 464.457 466.385 466.385 466.385 466.385 466.332 466.33 466.385 466.385 466.385 466.385 466.385 468.683 466.385 466.385 466.385 466.385 466.385 466.385 466.385 466.385 466.366 466.384 465.236 466.262 
        </DataArray>
        <DataArray type="Float32" Name="F1_Mass fraction_SG_co2gas_mod.xml" format="ascii">
1 1 1 1 1 1 1 1 1 1 1 1 1 1 1 1 1 1 1 1 1 1 1 1 1 1 1 1 1 1 1 1 1 1 1 1 1 1 1 1 1 1 1 1 1 1 1 1 1 1 1 1 1 1 1 1 1 1 1 1 1 1 1 1 1 
        </DataArray>
        <DataArray type="Float32" Name="Density_Mixture" format="ascii">
106.138 106.138 106.132 106.14 223.826 223.523 106.135 106.136 199.891 198.484 318.25 318.276 337.16 334.614 106.138 106.138 114.903 118.803 106.759 107.439 107.464 105.176 106.138 106.138 115.904 116.087 106.138 106.138 106.138 106.138 106.138 106.138 106.009 106.122 106.138 106.138 106.138 106.138 106.138 98.7857 98.7858 106.138 106.138 106.138 106.136 105.935 105.928 106.136 106.138 106.138 106.138 106.138 93.0439 106.138 106.138 106.138 106.138 106.138 106.138 106.138 106.137 106.065 106.133 101.803 105.658 
        </DataArray>
        <DataArray type="Float32" Name="Pressure_Mixture" format="ascii">
6.27185e+06 6.27187e+06 6.27144e+06 6.27201e+06 1.33326e+07 1.33108e+07 6.27168e+06 6.27174e+06 1.19552e+07 1.18935e+07 1.65734e+07 1.6575e+07 1.79711e+07 1.78281e+07 6.27186e+06 6.27186e+06 6.91554e+06 7.19415e+06 6.31639e+06 6.36548e+06 6.36724e+06 6.20327e+06 6.27186e+06 6.27186e+06 7.00334e+06 7.01688e+06 6.27186e+06 6.27186e+06 6.27186e+06 6.27186e+06 6.27186e+06 6.27186e+06 6.26269e+06 6.2707e+06 6.27186e+06 6.27186e+06 6.27186e+06 6.27186e+06 6.27186e+06 5.7485e+06 5.7485e+06 6.27186e+06 6.27186e+06 6.27186e+06 6.27176e+06 6.2574e+06 6.25686e+06 6.27175e+06 6.27186e+06 6.27186e+06 6.27186e+06 6.27186e+06 5.41973e+06 6.27186e+06 6.27186e+06 6.27186e+06 6.27186e+06 6.27186e+06 6.27186e+06 6.27186e+06 6.27184e+06 6.26669e+06 6.27152e+06 5.96263e+06 6.23763e+06 
        </DataArray>
        <DataArray type="Float32" Name="Velocity_Mixture" NumberOfComponents="3" format="ascii">
-0.000232225 -5.67904e-07 0 0.00041061 3.03589e-05 0 -0.0100744 0.0112961 0 0.0033415 0.00600349 0 202.901 -17.4251 0 203.314 18.5248 0 -0.00461305 0.00324309 0 -0.00377435 -0.00180964 0 180.121 43.2733 0 178.029 -36.3735 0 315.134 0.911559 0 315.118 -0.922337 0 293.994 -30.5692 0 287.903 49.5265 0 0 0 0 0 0 0 23.9109 0.698251 0 22.4913 7.96087 0 1.35211 -0.766467 0 3.19386 -1.3205 0 3.12535 1.33028 0 -1.88251 -2.26719 0 0 0 0 0 0 0 27.612 -6.58411 0 28.0827 7.15601 0 0 0 0 0 0 0 0 0 0 0 0 0 0 0 0 0 0 0 -0.21413 -0.00694542 0 -0.0757572 -0.0246266 0 0 0 0 0 0 0 0 0 0 0 0 0 0 0 0 4.31691 -1.4541 0 4.31691 1.45411 0 0 0 0 0 0 0 0 0 0 0.000499329 -0.00112252 0 0.083634 -0.10812 0 0.0955741 0.105448 0 0.000605061 0.00118838 0 0 0 0 0 0 0 0 0 0 0 0 0 30.633 4.46759e-06 0 0 0 0 0 0 0 0 0 0 0 0 0 0 0 0 0 0 0 3.96147e-05 0 0 0.000176416 3.69212e-05 0 0.0464551 0.00947433 0 0.0179064 -0.000700159 0 3.526 -0.000115524 0 2.02582 -0.0759865 0 
        </DataArray>
        <DataArray type="Float32" Name="gradRho" format="ascii">
0.00166179 0.000607195 0.00455433 0.0389294 62.0956 62.2253 0.512778 0.501754 57.2424 58.9246 65.5808 65.8049 32.74 31.8068 5.4316e-05 2.55906e-05 29.1621 29.3831 2.60235 3.64761 3.34351 3.46376 7.72958e-07 1.49185e-06 39.5192 39.6511 0 5.1962e-10 3.58006e-11 5.15739e-08 4.33012e-09 0 0.307343 0.221871 0 0 0 0 0 0.943739 0.943748 0 4.08191e-09 2.87198e-06 0.000697971 0.0479559 0.0449708 0.000633496 2.52224e-06 3.467e-09 0 0 0.827821 0 0 0 6.87378e-10 5.37623e-07 2.00324e-07 0.000101662 0.000220405 0.0366895 0.023961 1.63927 1.37554 
        </DataArray>
      </CellData>
    </Piece>
  </UnstructuredGrid>
</VTKFile>
